<?xml version="1.0"?>
<VTKFile type="UnstructuredGrid"  version="0.1"  >
<UnstructuredGrid>
<Piece  NumberOfPoints="16641" NumberOfCells="32768">
<Points>
<DataArray  type="Float64"  NumberOfComponents="3"  format="ascii">-1 -1 0  -0.984375 -1 0  -0.96875 -1 0  -0.953125 -1 0  -0.9375 -1 0  -0.921875 -1 0  -0.90625 -1 0  -0.890625 -1 0  -0.875 -1 0  -0.859375 -1 0  -0.84375 -1 0  -0.828125 -1 0  -0.8125 -1 0  -0.796875 -1 0  -0.78125 -1 0  -0.765625 -1 0  -0.75 -1 0  -0.734375 -1 0  -0.71875 -1 0  -0.703125 -1 0  -0.6875 -1 0  -0.671875 -1 0  -0.65625 -1 0  -0.640625 -1 0  -0.625 -1 0  -0.609375 -1 0  -0.59375 -1 0  -0.578125 -1 0  -0.5625 -1 0  -0.546875 -1 0  -0.53125 -1 0  -0.515625 -1 0  -0.5 -1 0  -0.484375 -1 0  -0.46875 -1 0  -0.453125 -1 0  -0.4375 -1 0  -0.421875 -1 0  -0.40625 -1 0  -0.390625 -1 0  -0.375 -1 0  -0.359375 -1 0  -0.34375 -1 0  -0.328125 -1 0  -0.3125 -1 0  -0.296875 -1 0  -0.28125 -1 0  -0.265625 -1 0  -0.25 -1 0  -0.234375 -1 0  -0.21875 -1 0  -0.203125 -1 0  -0.1875 -1 0  -0.171875 -1 0  -0.15625 -1 0  -0.140625 -1 0  -0.125 -1 0  -0.109375 -1 0  -0.09375 -1 0  -0.078125 -1 0  -0.0625 -1 0  -0.046875 -1 0  -0.03125 -1 0  -0.015625 -1 0  0 -1 0  0.015625 -1 0  0.03125 -1 0  0.046875 -1 0  0.0625 -1 0  0.078125 -1 0  0.09375 -1 0  0.109375 -1 0  0.125 -1 0  0.140625 -1 0  0.15625 -1 0  0.171875 -1 0  0.1875 -1 0  0.203125 -1 0  0.21875 -1 0  0.234375 -1 0  0.25 -1 0  0.265625 -1 0  0.28125 -1 0  0.296875 -1 0  0.3125 -1 0  0.328125 -1 0  0.34375 -1 0  0.359375 -1 0  0.375 -1 0  0.390625 -1 0  0.40625 -1 0  0.421875 -1 0  0.4375 -1 0  0.453125 -1 0  0.46875 -1 0  0.484375 -1 0  0.5 -1 0  0.515625 -1 0  0.53125 -1 0  0.546875 -1 0  0.5625 -1 0  0.578125 -1 0  0.59375 -1 0  0.609375 -1 0  0.625 -1 0  0.640625 -1 0  0.65625 -1 0  0.671875 -1 0  0.6875 -1 0  0.703125 -1 0  0.71875 -1 0  0.734375 -1 0  0.75 -1 0  0.765625 -1 0  0.78125 -1 0  0.796875 -1 0  0.8125 -1 0  0.828125 -1 0  0.84375 -1 0  0.859375 -1 0  0.875 -1 0  0.890625 -1 0  0.90625 -1 0  0.921875 -1 0  0.9375 -1 0  0.953125 -1 0  0.96875 -1 0  0.984375 -1 0  1 -1 0  -1 -0.984375 0  -0.984375 -0.984375 0  -0.96875 -0.984375 0  -0.953125 -0.984375 0  -0.9375 -0.984375 0  -0.921875 -0.984375 0  -0.90625 -0.984375 0  -0.890625 -0.984375 0  -0.875 -0.984375 0  -0.859375 -0.984375 0  -0.84375 -0.984375 0  -0.828125 -0.984375 0  -0.8125 -0.984375 0  -0.796875 -0.984375 0  -0.78125 -0.984375 0  -0.765625 -0.984375 0  -0.75 -0.984375 0  -0.734375 -0.984375 0  -0.71875 -0.984375 0  -0.703125 -0.984375 0  -0.6875 -0.984375 0  -0.671875 -0.984375 0  -0.65625 -0.984375 0  -0.640625 -0.984375 0  -0.625 -0.984375 0  -0.609375 -0.984375 0  -0.59375 -0.984375 0  -0.578125 -0.984375 0  -0.5625 -0.984375 0  -0.546875 -0.984375 0  -0.53125 -0.984375 0  -0.515625 -0.984375 0  -0.5 -0.984375 0  -0.484375 -0.984375 0  -0.46875 -0.984375 0  -0.453125 -0.984375 0  -0.4375 -0.984375 0  -0.421875 -0.984375 0  -0.40625 -0.984375 0  -0.390625 -0.984375 0  -0.375 -0.984375 0  -0.359375 -0.984375 0  -0.34375 -0.984375 0  -0.328125 -0.984375 0  -0.3125 -0.984375 0  -0.296875 -0.984375 0  -0.28125 -0.984375 0  -0.265625 -0.984375 0  -0.25 -0.984375 0  -0.234375 -0.984375 0  -0.21875 -0.984375 0  -0.203125 -0.984375 0  -0.1875 -0.984375 0  -0.171875 -0.984375 0  -0.15625 -0.984375 0  -0.140625 -0.984375 0  -0.125 -0.984375 0  -0.109375 -0.984375 0  -0.09375 -0.984375 0  -0.078125 -0.984375 0  -0.0625 -0.984375 0  -0.046875 -0.984375 0  -0.03125 -0.984375 0  -0.015625 -0.984375 0  0 -0.984375 0  0.015625 -0.984375 0  0.03125 -0.984375 0  0.046875 -0.984375 0  0.0625 -0.984375 0  0.078125 -0.984375 0  0.09375 -0.984375 0  0.109375 -0.984375 0  0.125 -0.984375 0  0.140625 -0.984375 0  0.15625 -0.984375 0  0.171875 -0.984375 0  0.1875 -0.984375 0  0.203125 -0.984375 0  0.21875 -0.984375 0  0.234375 -0.984375 0  0.25 -0.984375 0  0.265625 -0.984375 0  0.28125 -0.984375 0  0.296875 -0.984375 0  0.3125 -0.984375 0  0.328125 -0.984375 0  0.34375 -0.984375 0  0.359375 -0.984375 0  0.375 -0.984375 0  0.390625 -0.984375 0  0.40625 -0.984375 0  0.421875 -0.984375 0  0.4375 -0.984375 0  0.453125 -0.984375 0  0.46875 -0.984375 0  0.484375 -0.984375 0  0.5 -0.984375 0  0.515625 -0.984375 0  0.53125 -0.984375 0  0.546875 -0.984375 0  0.5625 -0.984375 0  0.578125 -0.984375 0  0.59375 -0.984375 0  0.609375 -0.984375 0  0.625 -0.984375 0  0.640625 -0.984375 0  0.65625 -0.984375 0  0.671875 -0.984375 0  0.6875 -0.984375 0  0.703125 -0.984375 0  0.71875 -0.984375 0  0.734375 -0.984375 0  0.75 -0.984375 0  0.765625 -0.984375 0  0.78125 -0.984375 0  0.796875 -0.984375 0  0.8125 -0.984375 0  0.828125 -0.984375 0  0.84375 -0.984375 0  0.859375 -0.984375 0  0.875 -0.984375 0  0.890625 -0.984375 0  0.90625 -0.984375 0  0.921875 -0.984375 0  0.9375 -0.984375 0  0.953125 -0.984375 0  0.96875 -0.984375 0  0.984375 -0.984375 0  1 -0.984375 0  -1 -0.96875 0  -0.984375 -0.96875 0  -0.96875 -0.96875 0  -0.953125 -0.96875 0  -0.9375 -0.96875 0  -0.921875 -0.96875 0  -0.90625 -0.96875 0  -0.890625 -0.96875 0  -0.875 -0.96875 0  -0.859375 -0.96875 0  -0.84375 -0.96875 0  -0.828125 -0.96875 0  -0.8125 -0.96875 0  -0.796875 -0.96875 0  -0.78125 -0.96875 0  -0.765625 -0.96875 0  -0.75 -0.96875 0  -0.734375 -0.96875 0  -0.71875 -0.96875 0  -0.703125 -0.96875 0  -0.6875 -0.96875 0  -0.671875 -0.96875 0  -0.65625 -0.96875 0  -0.640625 -0.96875 0  -0.625 -0.96875 0  -0.609375 -0.96875 0  -0.59375 -0.96875 0  -0.578125 -0.96875 0  -0.5625 -0.96875 0  -0.546875 -0.96875 0  -0.53125 -0.96875 0  -0.515625 -0.96875 0  -0.5 -0.96875 0  -0.484375 -0.96875 0  -0.46875 -0.96875 0  -0.453125 -0.96875 0  -0.4375 -0.96875 0  -0.421875 -0.96875 0  -0.40625 -0.96875 0  -0.390625 -0.96875 0  -0.375 -0.96875 0  -0.359375 -0.96875 0  -0.34375 -0.96875 0  -0.328125 -0.96875 0  -0.3125 -0.96875 0  -0.296875 -0.96875 0  -0.28125 -0.96875 0  -0.265625 -0.96875 0  -0.25 -0.96875 0  -0.234375 -0.96875 0  -0.21875 -0.96875 0  -0.203125 -0.96875 0  -0.1875 -0.96875 0  -0.171875 -0.96875 0  -0.15625 -0.96875 0  -0.140625 -0.96875 0  -0.125 -0.96875 0  -0.109375 -0.96875 0  -0.09375 -0.96875 0  -0.078125 -0.96875 0  -0.0625 -0.96875 0  -0.046875 -0.96875 0  -0.03125 -0.96875 0  -0.015625 -0.96875 0  0 -0.96875 0  0.015625 -0.96875 0  0.03125 -0.96875 0  0.046875 -0.96875 0  0.0625 -0.96875 0  0.078125 -0.96875 0  0.09375 -0.96875 0  0.109375 -0.96875 0  0.125 -0.96875 0  0.140625 -0.96875 0  0.15625 -0.96875 0  0.171875 -0.96875 0  0.1875 -0.96875 0  0.203125 -0.96875 0  0.21875 -0.96875 0  0.234375 -0.96875 0  0.25 -0.96875 0  0.265625 -0.96875 0  0.28125 -0.96875 0  0.296875 -0.96875 0  0.3125 -0.96875 0  0.328125 -0.96875 0  0.34375 -0.96875 0  0.359375 -0.96875 0  0.375 -0.96875 0  0.390625 -0.96875 0  0.40625 -0.96875 0  0.421875 -0.96875 0  0.4375 -0.96875 0  0.453125 -0.96875 0  0.46875 -0.96875 0  0.484375 -0.96875 0  0.5 -0.96875 0  0.515625 -0.96875 0  0.53125 -0.96875 0  0.546875 -0.96875 0  0.5625 -0.96875 0  0.578125 -0.96875 0  0.59375 -0.96875 0  0.609375 -0.96875 0  0.625 -0.96875 0  0.640625 -0.96875 0  0.65625 -0.96875 0  0.671875 -0.96875 0  0.6875 -0.96875 0  0.703125 -0.96875 0  0.71875 -0.96875 0  0.734375 -0.96875 0  0.75 -0.96875 0  0.765625 -0.96875 0  0.78125 -0.96875 0  0.796875 -0.96875 0  0.8125 -0.96875 0  0.828125 -0.96875 0  0.84375 -0.96875 0  0.859375 -0.96875 0  0.875 -0.96875 0  0.890625 -0.96875 0  0.90625 -0.96875 0  0.921875 -0.96875 0  0.9375 -0.96875 0  0.953125 -0.96875 0  0.96875 -0.96875 0  0.984375 -0.96875 0  1 -0.96875 0  -1 -0.953125 0  -0.984375 -0.953125 0  -0.96875 -0.953125 0  -0.953125 -0.953125 0  -0.9375 -0.953125 0  -0.921875 -0.953125 0  -0.90625 -0.953125 0  -0.890625 -0.953125 0  -0.875 -0.953125 0  -0.859375 -0.953125 0  -0.84375 -0.953125 0  -0.828125 -0.953125 0  -0.8125 -0.953125 0  -0.796875 -0.953125 0  -0.78125 -0.953125 0  -0.765625 -0.953125 0  -0.75 -0.953125 0  -0.734375 -0.953125 0  -0.71875 -0.953125 0  -0.703125 -0.953125 0  -0.6875 -0.953125 0  -0.671875 -0.953125 0  -0.65625 -0.953125 0  -0.640625 -0.953125 0  -0.625 -0.953125 0  -0.609375 -0.953125 0  -0.59375 -0.953125 0  -0.578125 -0.953125 0  -0.5625 -0.953125 0  -0.546875 -0.953125 0  -0.53125 -0.953125 0  -0.515625 -0.953125 0  -0.5 -0.953125 0  -0.484375 -0.953125 0  -0.46875 -0.953125 0  -0.453125 -0.953125 0  -0.4375 -0.953125 0  -0.421875 -0.953125 0  -0.40625 -0.953125 0  -0.390625 -0.953125 0  -0.375 -0.953125 0  -0.359375 -0.953125 0  -0.34375 -0.953125 0  -0.328125 -0.953125 0  -0.3125 -0.953125 0  -0.296875 -0.953125 0  -0.28125 -0.953125 0  -0.265625 -0.953125 0  -0.25 -0.953125 0  -0.234375 -0.953125 0  -0.21875 -0.953125 0  -0.203125 -0.953125 0  -0.1875 -0.953125 0  -0.171875 -0.953125 0  -0.15625 -0.953125 0  -0.140625 -0.953125 0  -0.125 -0.953125 0  -0.109375 -0.953125 0  -0.09375 -0.953125 0  -0.078125 -0.953125 0  -0.0625 -0.953125 0  -0.046875 -0.953125 0  -0.03125 -0.953125 0  -0.015625 -0.953125 0  0 -0.953125 0  0.015625 -0.953125 0  0.03125 -0.953125 0  0.046875 -0.953125 0  0.0625 -0.953125 0  0.078125 -0.953125 0  0.09375 -0.953125 0  0.109375 -0.953125 0  0.125 -0.953125 0  0.140625 -0.953125 0  0.15625 -0.953125 0  0.171875 -0.953125 0  0.1875 -0.953125 0  0.203125 -0.953125 0  0.21875 -0.953125 0  0.234375 -0.953125 0  0.25 -0.953125 0  0.265625 -0.953125 0  0.28125 -0.953125 0  0.296875 -0.953125 0  0.3125 -0.953125 0  0.328125 -0.953125 0  0.34375 -0.953125 0  0.359375 -0.953125 0  0.375 -0.953125 0  0.390625 -0.953125 0  0.40625 -0.953125 0  0.421875 -0.953125 0  0.4375 -0.953125 0  0.453125 -0.953125 0  0.46875 -0.953125 0  0.484375 -0.953125 0  0.5 -0.953125 0  0.515625 -0.953125 0  0.53125 -0.953125 0  0.546875 -0.953125 0  0.5625 -0.953125 0  0.578125 -0.953125 0  0.59375 -0.953125 0  0.609375 -0.953125 0  0.625 -0.953125 0  0.640625 -0.953125 0  0.65625 -0.953125 0  0.671875 -0.953125 0  0.6875 -0.953125 0  0.703125 -0.953125 0  0.71875 -0.953125 0  0.734375 -0.953125 0  0.75 -0.953125 0  0.765625 -0.953125 0  0.78125 -0.953125 0  0.796875 -0.953125 0  0.8125 -0.9
[...]
<PointData  Vectors="f_53"> 
<DataArray  type="Float64"  Name="f_53"  NumberOfComponents="3" format="ascii">-3.1575318393844529e-03 3.1579118985919277e-03 0.0000000000000000e+00  -1.4372182289599498e-02 4.3979061688962347e-03 0.0000000000000000e+00  -2.9155831172654325e-02 4.1915988943360362e-03 0.0000000000000000e+00  -4.3794634015671692e-02 4.2204573050998355e-03 0.0000000000000000e+00  -5.8409567094164207e-02 4.2267075278417969e-03 0.0000000000000000e+00  -7.3066050878189931e-02 4.2350090815683160e-03 0.0000000000000000e+00  -8.7753843682533944e-02 4.2456598115726309e-03 0.0000000000000000e+00  -1.0248107586210636e-01 4.2577681903324853e-03 0.0000000000000000e+00  -1.1725302859879770e-01 4.2713701746314708e-03 0.0000000000000000e+00  -1.3207447503261982e-01 4.2862761024277740e-03 0.0000000000000000e+00  -1.4694964179328956e-01 4.3022999749150496e-03 0.0000000000000000e+00  -1.6188205776229969e-01 4.3192366106583500e-03 0.0000000000000000e+00  -1.7687450873462748e-01 4.3368615518347801e-03 0.0000000000000000e+00  -1.9192897240328555e-01 4.3549330418233990e-03 0.0000000000000000e+00  -2.0704655955274709e-01 4.3731928704381102e-03 0.0000000000000000e+00  -2.2222745920210188e-01 4.3913675778048484e-03 0.0000000000000000e+00  -2.3747088788960868e-01 4.4091697264105672e-03 0.0000000000000000e+00  -2.5277504355357433e-01 4.4262992660788029e-03 0.0000000000000000e+00  -2.6813706430135387e-01 4.4424449901824857e-03 0.0000000000000000e+00  -2.8355299237328629e-01 4.4572860765093565e-03 0.0000000000000000e+00  -2.9901774358625915e-01 4.4704937069210381e-03 0.0000000000000000e+00  -3.1452508251749250e-01 4.4817327585103513e-03 0.0000000000000000e+00  -3.3006760366267807e-01 4.4906635579662251e-03 0.0000000000000000e+00  -3.4563671877212854e-01 4.4969436899446507e-03 0.0000000000000000e+00  -3.6122265053531366e-01 4.5002298497045304e-03 0.0000000000000000e+00  -3.7681443274956394e-01 4.5001797296445895e-03 0.0000000000000000e+00  -3.9239991707156685e-01 4.4964539289210244e-03 0.0000000000000000e+00  -4.0796578641357162e-01 4.4887178756469063e-03 0.0000000000000000e+00  -4.2349757500890023e-01 4.4766437509710950e-03 0.0000000000000000e+00  -4.3897969513513058e-01 4.4599124047561738e-03 0.0000000000000000e+00  -4.5439547044915274e-01 4.4382152533610272e-03 0.0000000000000000e+00  -4.6972717585514889e-01 4.4112561503263457e-03 0.0000000000000000e+00  -4.8495608379768063e-01 4.3787532219147305e-03 0.0000000000000000e+00  -5.0006251684407910e-01 4.3404406601329874e-03 0.0000000000000000e+00  -5.1502590639718659e-01 4.2960704665302675e-03 0.0000000000000000e+00  -5.2982485735782725e-01 4.2454141412073300e-03 0.0000000000000000e+00  -5.4443721853738858e-01 4.1882643116877361e-03 0.0000000000000000e+00  -5.5884015860382641e-01 4.1244362968608696e-03 0.0000000000000000e+00  -5.7301024732831751e-01 4.0537696013324678e-03 0.0000000000000000e+00  -5.8692354188333662e-01 3.9761293353423729e-03 0.0000000000000000e+00  -6.0055567792553821e-01 3.8914075549434809e-03 0.0000000000000000e+00  -6.1388196517761862e-01 3.7995245163299721e-03 0.0000000000000000e+00  -6.2687748720004499e-01 3.7004298370953222e-03 0.0000000000000000e+00  -6.3951720501661302e-01 3.5941035558731027e-03 0.0000000000000000e+00  -6.5177606422551848e-01 3.4805570802080221e-03 0.0000000000000000e+00  -6.6362910518941087e-01 3.3598340108313800e-03 0.0000000000000000e+00  -6.7505157585407882e-01 3.2320108288092803e-03 0.0000000000000000e+00  -6.8601904669565317e-01 3.0971974304787736e-03 0.0000000000000000e+00  -6.9650752724106335e-01 2.9555374936244723e-03 0.0000000000000000e+00  -7.0649358354750436e-01 2.8072086574053010e-03 0.0000000000000000e+00  -7.1595445596443497e-01 2.6524224980914723e-03 0.0000000000000000e+00  -7.2486817643930890e-01 2.4914242826842036e-03 0.0000000000000000e+00  -7.3321368456683733e-01 2.3244924832948833e-03 0.0000000000000000e+00  -7.4097094152490484e-01 2.1519380369764605e-03 0.0000000000000000e+00  -7.4812104099025944e-01 1.9741033378931857e-03 0.0000000000000000e+00  -7.5464631608734312e-01 1.7913609522350309e-03 0.0000000000000000e+00  -7.6053044139658865e-01 1.6041120502171486e-03 0.0000000000000000e+00  -7.6575852903709252e-01 1.4127845544561041e-03 0.0000000000000000e+00  -7.7031721784473961e-01 1.2178310092306227e-03 0.0000000000000000e+00  -7.7419475469287713e-01 1.0197261811315974e-03 0.0000000000000000e+00  -7.7738106704892562e-01 8.1896440748982675e-04 0.0000000000000000e+00  -7.7986782592791593e-01 6.1605671499436018e-04 0.0000000000000000e+00  -7.8164849849177909e-01 4.1152773667327519e-04 0.0000000000000000e+00  -7.8271838965044715e-01 2.0591246064996413e-04 0.0000000000000000e+00  -7.8307467214487425e-01 -2.4715144697551301e-07 0.0000000000000000e+00  -7.8271640473040494e-01 -2.0640563494122668e-04 0.0000000000000000e+00  -7.8164453822769708e-01 -4.1201753748922629e-04 0.0000000000000000e+00  -7.7986190936375199e-01 -6.1654093417984183e-04 0.0000000000000000e+00  -7.7737322248307716e-01 -8.1944089716046804e-04 0.0000000000000000e+00  -7.7418501936425599e-01 -1.0201928758694382e-03 0.0000000000000000e+00  -7.7030563752580328e-01 -1.2182859464662400e-03 0.0000000000000000e+00  -7.6574515754315187e-01 -1.4132258926162447e-03 0.0000000000000000e+00  -7.6051534002240262e-01 -1.6045380843075141e-03 0.0000000000000000e+00  -7.5462955298319179e-01 -1.7917701266329388e-03 0.0000000000000000e+00  -7.4810269049057876e-01 -1.9744942562031670e-03 0.0000000000000000e+00  -7.4095108344281180e-01 -2.1523094688592581e-03 0.0000000000000000e+00  -7.3319240346792769e-01 -2.3248433683490770e-03 0.0000000000000000e+00  -7.2484556090758823e-01 -2.4917537314454534e-03 0.0000000000000000e+00  -7.1593059787241453e-01 -2.6527297903472143e-03 0.0000000000000000e+00  -7.0646857734145141e-01 -2.8074932380692209e-03 0.0000000000000000e+00  -6.9648146925105758e-01 -2.9557989664671506e-03 0.0000000000000000e+00  -6.8599203447862744e-01 -3.0974355499839988e-03 0.0000000000000000e+00  -6.7502370757645702e-01 -3.2322254905286897e-03 0.0000000000000000e+00  -6.6360047905440134e-01 -3.3600252405762516e-03 0.0000000000000000e+00  -6.5174677794863811e-01 -3.4807250223753659e-03 0.0000000000000000e+00  -6.3948735535154233e-01 -3.5942484612439727e-03 0.0000000000000000e+00  -6.2684716951560970e-01 -3.7005520503898414e-03 0.0000000000000000e+00  -6.1385127308561371e-01 -3.7996244637852391e-03 0.0000000000000000e+00  -6.0052470295798910e-01 -3.8914857321376128e-03 0.0000000000000000e+00  -5.8689237321721777e-01 -3.9761862954941357e-03 0.0000000000000000e+00  -5.7297897155512789e-01 -4.0538059441110460e-03 0.0000000000000000e+00  -5.5880885954061121e-01 -4.1244526580319421e-03 0.0000000000000000e+00  -5.4440597707622440e-01 -4.1882613535183773e-03 0.0000000000000000e+00  -5.2979375134989959e-01 -4.2453925437328892e-03 0.0000000000000000e+00  -5.1499501056810837e-01 -4.2960309198160915e-03 0.0000000000000000e+00  -5.0003190273696363e-01 -4.3403838573963967e-03 0.0000000000000000e+00  -4.8492581974068533e-01 -4.3786798535940452e-03 0.0000000000000000e+00  -4.6969732695028810e-01 -4.4111668990441198e-03 0.0000000000000000e+00  -4.5436609857971472e-01 -4.4381107897957526e-03 0.0000000000000000e+00  -4.3895085898892039e-01 -4.4597933842452303e-03 0.0000000000000000e+00  -4.2346933011502802e-01 -4.4765108109199869e-03 0.0000000000000000e+00  -4.0793818519080055e-01 -4.4885716335650088e-03 0.0000000000000000e+00  -3.9237300888612259e-01 -4.4962949811599724e-03 0.0000000000000000e+00  -3.7678826398120702e-01 -4.5000086506442232e-03 0.0000000000000000e+00  -3.6119726464974888e-01 -4.5000471917309749e-03 0.0000000000000000e+00  -3.4561215639884241e-01 -4.4967499831695765e-03 0.0000000000000000e+00  -3.3004390267702366e-01 -4.4904593110127299e-03 0.0000000000000000e+00  -3.1450227812583770e-01 -4.4815184591476005e-03 0.0000000000000000e+00  -2.9899586841364706e-01 -4.4702698230601901e-03 0.0000000000000000e+00  -2.8353207655215951e-01 -4.4570530573631558e-03 0.0000000000000000e+00  -2.6811713556238365e-01 -4.4422032675173638e-03 0.0000000000000000e+00  -2.5275612731155422e-01 -4.4260492555183327e-03 0.0000000000000000e+00  -2.3745300734768490e-01 -4.4089118288612190e-03 0.0000000000000000e+00  -2.2221063538345498e-01 -4.3911021808391319e-03 0.0000000000000000e+00  -2.0703081159774009e-01 -4.3729203497133926e-03 0.0000000000000000e+00  -1.9191431686433233e-01 -4.3546537626784811e-03 0.0000000000000000e+00  -1.7686096261254619e-01 -4.3365758675180431e-03 0.0000000000000000e+00  -1.6186962751936529e-01 -4.3189448828375157e-03 0.0000000000000000e+00  -1.4693836478749400e-01 -4.3020025136997911e-03 0.0000000000000000e+00  -1.3206426554846304e-01 -4.2859730858419761e-03 0.0000000000000000e+00  -1.1724424911329462e-01 -4.2710641548229849e-03 0.0000000000000000e+00  -1.0247242249660449e-01 -4.2574464512043046e-03 0.0000000000000000e+00  -8.7750223316410775e-02 -4.2453590523016315e-03 0.0000000000000000e+00  -7.3048725952530286e-02 -4.2348490500111868e-03 0.0000000000000000e+00  -5.8451986475174307e-02 -4.2245051452127662e-03 0.0000000000000000e+00  -4.3607804008865061e-02 -4.2305065239072806e-03 0.0000000000000000e+00  -2.9824970869402119e-02 -4.1692531554085735e-03 0.0000000000000000e+00  -1.2355171227516407e-02 -4.1846007988129534e-03 0.0000000000000000e+00  -6.3150675517127516e-03 -6.3148141354190572e-03 0.0000000000000000e+00  -4.3957087218001222e-03 1.4371416385156136e-02 0.0000000000000000e+00  -1.3467272181121683e-02 1.3472817946559430e-02 0.0000000000000000e+00  -2.9357322792248820e-02 1.3434421561175689e-02 0.0000000000000000e+00  -4.3755148555216457e-02 1.3495653773292158e-02 0.0000000000000000e+00  -5.8397776962012031e-02 1.3506604018675686e-02 0.0000000000000000e+00  -7.3049922728486358e-02 1.3536767387608093e-02 0.0000000000000000e+00  -8.7734196311725771e-02 1.3570500627448349e-02 0.0000000000000000e+00  -1.0245891964622332e-01 1.3609531462752402e-02 0.0000000000000000e+00  -1.1722841329633139e-01 1.3653275948775767e-02 0.0000000000000000e+00  -1.3204773655123053e-01 1.3701166386011725e-02 0.0000000000000000e+00  -1.4692111657176884e-01 1.3752616068712337e-02 0.0000000000000000e+00  -1.6185211600226493e-01 1.3806962089960727e-02 0.0000000000000000e+00  -1.7684355279777786e-01 1.3863484922680499e-02 0.0000000000000000e+00  -1.9189743392664127e-01 1.3921409024140907e-02 0.0000000000000000e+00  -2.0701489780332433e-01 1.3979906425583952e-02 0.0000000000000000e+00  -2.2219615892521416e-01 1.4038100548877528e-02 0.0000000000000000e+00  -2.3744045703430053e-01 1.4095070269543878e-02 0.0000000000000000e+00  -2.5274601083765480e-01 1.4149854299711906e-02 0.0000000000000000e+00  -2.6810997662260222e-01 1.4201455855567369e-02 0.0000000000000000e+00  -2.8352841207824669e-01 1.4248847596251850e-02 0.0000000000000000e+00  -2.9899624560768862e-01 1.4290976814192086e-02 0.0000000000000000e+00  -3.1450725139403624e-01 1.4326770853233167e-02 0.0000000000000000e+00  -3.3005403045573223e-01 1.4355142728008587e-02 0.0000000000000000e+00  -3.4562799789635335e-01 1.4374996915160559e-02 0.0000000000000000e+00  -3.6121937652037500e-01 1.4385235284697470e-02 0.0000000000000000e+00  -3.7681719695116411e-01 1.4384763138290069e-02 0.0000000000000000e+00  -3.9240930435064969e-01 1.4372495320336423e-02 0.0000000000000000e+00  -4.0798237180191227e-01 1.4347362367273476e-02 0.0000000000000000e+00  -4.2352192037944753e-01 1.4308316661526451e-02 0.0000000000000000e+00  -4.3901234589436233e-01 1.4254338557104042e-02 0.0000000000000000e+00  -4.5443695226767317e-01 1.4184442446115704e-02 0.0000000000000000e+00  -4.6977799145166871e-01 1.4097682737444937e-02 0.0000000000000000e+00  -4.8501670978969386e-01 1.3993159721509068e-02 0.0000000000000000e+00  -5.0013340067764389e-01 1.3870025297730697e-02 0.0000000000000000e+00  -5.1510746336630575e-01 1.3727488543836711e-02 0.0000000000000000e+00  -5.2991746772300430e-01 1.3564821108758897e-02 0.0000000000000000e+00  -5.4454122475204869e-01 1.3381362412630276e-02 0.0000000000000000e+00  -5.5895586265669006e-01 1.3176524638551547e-02 0.0000000000000000e+00  -5.7313790820983468e-01 1.2949797501447573e-02 0.0000000000000000e+00  -5.8706337318481305e-01 1.2700752778595838e-02 0.0000000000000000e+00  -6.0070784558070178e-01 1.2429048584916627e-02 0.0000000000000000e+00  -6.1404658535782808e-01 1.2134433373512712e-02 0.0000000000000000e+00  -6.2705462437671944e-01 1.1816749638437188e-02 0.0000000000000000e+00  -6.3970687020681827e-01 1.1475937292079002e-02 0.0000000000000000e+00  -6.5197821343950491e-01 1.1112036684647506e-02 0.0000000000000000e+00  -6.6384363810200175e-01 1.0725191227761440e-02 0.0000000000000000e+00  -6.7527833472457088e-01 1.0315649578546334e-02 0.0000000000000000e+00  -6.8625781556358567e-01 9.8837673356279767e-03 0.0000000000000000e+00  -6.9675803142743309e-01 9.4300081939568126e-03 0.0000000000000000e+00  -7.0675548949220857e-01 8.9549445021846422e-03 0.0000000000000000e+00  -7.1622737143140225e-01 8.4592571647656399e-03 0.0000000000000000e+00  -7.2515165111983637e-01 7.9437348312870401e-03 0.0000000000000000e+00  -7.3350721110983585e-01 7.4092723183042672e-03 0.0000000000000000e+00  -7.4127395701913379e-01 6.8568682142038043e-03 0.0000000000000000e+00  -7.4843292891883106e-01 6.2876216256006973e-03 0.0000000000000000e+00  -7.5496640876839238e-01 5.7027280344615306e-03 0.0000000000000000e+00  -7.6085802291631299e-01 5.1034742483238391e-03 0.0000000000000000e+00  -7.6609283867255806e-01 4.4912324415808903e-03 0.0000000000000000e+00  -7.7065745396413776e-01 3.8674533031032737e-03 0.0000000000000000e+00  -7.7454007911057543e-01 3.2336583242216564e-03 0.0000000000000000e+00  -7.7773060980225606e-01 2.5914312804096234e-03 0.0000000000000000e+00  -7.8022069043228237e-01 1.9424089792725431e-03 0.0000000000000000e+00  -7.8200376702115437e-01 1.2882713658730223e-03 0.0000000000000000e+00  -7.8307512908162857e-01 6.3073109310889195e-04 0.0000000000000000e+00  -7.8343193989683124e-01 -2.8477320682550635e-05 0.0000000000000000e+00  -7.8307325482460488e-01 -6.8760861344473927e-04 0.0000000000000000e+00  -7.8200002739195595e-01 -1.3449180391616790e-03 0.0000000000000000e+00  -7.8021510310087971e-01 -1.9986726205027325e-03 0.0000000000000000e+00  -7.7772320102665626e-01 -2.6471622494104760e-03 0.0000000000000000e+00  -7.7453088344700671e-01 -3.2887104949807975e-03 0.0000000000000000e+00  -7.7064651389121797e-01 -3.9216849861557221e-03 0.0000000000000000e+00  -7.6608020413803501e-01 -4.5445072484555527e-03 0.0000000000000000e+00  -7.6084375081641442e-01 -5.1556618885831209e-03 0.0000000000000000e+00  -7.5495056237101765e-01 -5.7537050377140294e-03 0.0000000000000000e+00  -7.4841557724256325e-01 -6.3372719827894768e-03 0.0000000000000000e+00  -7.4125517418037234e-01 -6.9050839344224728e-03 0.0000000000000000e+00  -7.3348707565038063e-01 -7.4559538993123351e-03 0.0000000000000000e+00  -7.2513024532677761e-01 -7.9887916437073360e-03 0.0000000000000000e+00  -7.1620478066053372e-01 -8.5026077515670366e-03 0.0000000000000000e+00  -7.0673180150514758e-01 -8.9965167964688661e-03 0.0000000000000000e+00  -6.9673333575148977e-01 -9.4697396591926636e-03 0.0000000000000000e+00  -6.8623220288207409e-01 -9.9216050333613692e-03 0.0000000000000000e+00  -6.7525189630388616e-01 -1.0351550169203440e-02 0.0000000000000000e+00  -6.6381646526026294e-01 -1.0759120910550382e-02 0.0000000000000000e+00  -6.5195039706031854e-01 -1.1143971082495910e-02 0.0000000000000000e+00  -6.3967850030030415e-01 -1.1505861287572937e-02 0.0000000000000000e+00  -6.2702578968875644e-01 -1.1844657166319959e-02 0.0000000000000000e+00  -6.1401737302733528e-01 -1.2160327174890370e-02 0.0000000000000000e+00  -6.0067834084403282e-01 -1.2452939927768667e-02 0.0000000000000000e+00  -5.8703365912529692e-01 -1.2722661148666426e-02 0.0000000000000000e+00  -5.7310806555022009e-01 -1.2969750266853769e-02 0.0000000000000000e+00  -5.5892596959158047e-01 -1.3194556691031631e-02 0.0000000000000000e+00  -5.4451135681709351e-01 -1.3397515787801937e-02 0.0000000000000000e+00  -5.2988769769763300e-01 -1.3579144587203931e-02 0.0000000000000000e+00  -5.1507786120643662e-01 -1.3740037234680851e-02 0.0000000000000000e+00  -5.0010403347514854e-01 -1.3880860205977900e-02 0.0000000000000000e+00  -4.8498764175514136e-01 -1.4002347300305241e-02 0.0000000000000000e+00  -4.6974928391738430e-01 -1.4105294426395151e-02 0.0000000000000000e+00  -4.5440866370803590e-01 -1.4190554196863681e-02 0.0000000000000000e+00  -4.3898453196065951e-01 -1.4259030347325867e-02 0.0000000000000000e+00  -4.2349463394670478e-01 -1.4311671998939740e-02 0.0000000000000000e+00  -4.0795566302570169e-01 -1.4349467785110488e-02 0.0000000000000000e+00  -3.9238322073146126e-01 -1.4373439866366484e-02 0.0000000000000000e+00  -3.7679178340501629e-01 -1.4384637859303218e-02 0.0000000000000000e+00  -3.6119467545365336e-01 -1.4384132708812721e-02 0.0000000000000000e+00  -3.4560404928388289e-01 -1.4373010534543398e-02 0.0000000000000000e+00  -3.3003087192062669e-01 -1.4352366484456921e-02 0.0000000000000000e+00  -3.1448491828853309e-01 -1.4323298629421636e-02 0.0000000000000000e+00  -2.9897477109391152e-01 -1.4286901933341844e-02 0.0000000000000000e+00  -2.8350782720815981e-01 -1.4244262332824201e-02 0.0000000000000000e+00  -2.6809031041706610e-01 -1.4196450959712505e-02 0.0000000000000000e+00  -2.5272729036170949e-01 -1.4144518537823107e-02 0.0000000000000000e+00  -2.3742270747708832e-01 -1.4089489983173569e-02 0.0000000000000000e+00  -2.2217940365098274e-01 -1.4032359234219579e-02 0.0000000000000000e+00  -2.0699915849696340e-01 -1.3974084335027004e-02 0.0000000000000000e+00  -1.9188273037089074e-01 -1.3915582791052754e-02 0.0000000000000000e+00  -1.7682990400861209e-01 -1.3857727215569852e-02 0.0000000000000000e+00  -1.6183953629855696e-01 -1.3801341270088046e-02 0.0000000000000000e+00  -1.4690963041668795e-01 -1.3747195914629012e-02 0.0000000000000000e+00  -1.3203732346827002e-01 -1.3696006195299374e-02 0.0000000000000000e+00  -1.1721921659768338e-01 -1.3648426545326317e-02 0.0000000000000000e+00  -1.0245044039234910e-01 -1.3605054303055959e-02 0.0000000000000000e+00  -8.7728440997693863e-02 -1.3566424684134317e-02 0.0000000000000000e+00  -7.3039346007758146e-02 -1.3532832724895544e-02 0.0000000000000000e+00  -5.8408364576442329e-02 -1.3505866197266415e-02 0.0000000000000000e+00  -4.3713259990282832e-02 -1.3481271874414008e-02 0.0000000000000000e+00  -2.9398747571561419e-02 -1.3458255898672600e-02 0.0000000000000000e+00  -1.3604477389079059e-02 -1.3609146740572448e-02 0.0000000000000000e+00  -4.1821553449548762e-03 -1.2353232606245719e-02 0.0000000000000000e+00  -4.1833279717291907e-03 2.9139772056738050e-02 0.0000000000000000e+00  -1.3408755227656321e-02 2.9354892613323563e-02 0.0000000000000000e+00  -2.9474587299893107e-02 2.9514567821139731e-02 0.0000000000000000e+00  -4.3669384649399998e-02 2.9528904521081721e-02 0.0000000000000000e+00  -5.8369640170507289e-02 2.9574133535425130e-02 0.0000000000000000e+00  -7.2997348263731651e-02 2.9638332375019373e-02 0.0000000000000000e+00  -8.7675118847882955e-02 2.9711642734958400e-02 0.0000000000000000e+00  -1.0239159571413063e-01 2.9797198922619381e-02 0.0000000000000000e+00  -1.1715379894990609e-01 2.9893010153195523e-02 0.0000000000000000e+00  -1.3196678797550718e-01 2.9998068828981157e-02 0.0000000000000000e+00  -1.4683484126656687e-01 3.0111053933732018e-02 0.0000000000000000e+00  -1.6176163723946593e-01 3.0230521265335215e-02 0.0000000000000000e+00  -1.7675008462634859e-01 3.0354898686778761e-02 0.0000000000000000e+00  -1.9180227902845209e-01 3.0482490109688502e-02 0.0000000000000000e+00  -2.0691944143426089e-01 3.0611484154189045e-02 0.0000000000000000e+00  -2.2210186249642225e-01 3.0739962163232847e-02 0.0000000000000000e+00  -2.3734885126648170e-01 3.0865907133172325e-02 0.0000000000000000e+00  -2.5265868841026246e-01 3.0987213287241206e-02 0.0000000000000000e+00  -2.6802858436937294e-01 3.1101696281840799e-02 0.0000000000000000e+00  -2.8345464275417792e-01 3.1207104014249448e-02 0.0000000000000000e+00  -2.9893182926284007e-01 