<?xml version="1.0"?>
<VTKFile type="UnstructuredGrid"  version="0.1"  >
<UnstructuredGrid>
<Piece  NumberOfPoints="16641" NumberOfCells="32768">
<Points>
<DataArray  type="Float64"  NumberOfComponents="3"  format="ascii">-1 -1 0  -0.984375 -1 0  -0.96875 -1 0  -0.953125 -1 0  -0.9375 -1 0  -0.921875 -1 0  -0.90625 -1 0  -0.890625 -1 0  -0.875 -1 0  -0.859375 -1 0  -0.84375 -1 0  -0.828125 -1 0  -0.8125 -1 0  -0.796875 -1 0  -0.78125 -1 0  -0.765625 -1 0  -0.75 -1 0  -0.734375 -1 0  -0.71875 -1 0  -0.703125 -1 0  -0.6875 -1 0  -0.671875 -1 0  -0.65625 -1 0  -0.640625 -1 0  -0.625 -1 0  -0.609375 -1 0  -0.59375 -1 0  -0.578125 -1 0  -0.5625 -1 0  -0.546875 -1 0  -0.53125 -1 0  -0.515625 -1 0  -0.5 -1 0  -0.484375 -1 0  -0.46875 -1 0  -0.453125 -1 0  -0.4375 -1 0  -0.421875 -1 0  -0.40625 -1 0  -0.390625 -1 0  -0.375 -1 0  -0.359375 -1 0  -0.34375 -1 0  -0.328125 -1 0  -0.3125 -1 0  -0.296875 -1 0  -0.28125 -1 0  -0.265625 -1 0  -0.25 -1 0  -0.234375 -1 0  -0.21875 -1 0  -0.203125 -1 0  -0.1875 -1 0  -0.171875 -1 0  -0.15625 -1 0  -0.140625 -1 0  -0.125 -1 0  -0.109375 -1 0  -0.09375 -1 0  -0.078125 -1 0  -0.0625 -1 0  -0.046875 -1 0  -0.03125 -1 0  -0.015625 -1 0  0 -1 0  0.015625 -1 0  0.03125 -1 0  0.046875 -1 0  0.0625 -1 0  0.078125 -1 0  0.09375 -1 0  0.109375 -1 0  0.125 -1 0  0.140625 -1 0  0.15625 -1 0  0.171875 -1 0  0.1875 -1 0  0.203125 -1 0  0.21875 -1 0  0.234375 -1 0  0.25 -1 0  0.265625 -1 0  0.28125 -1 0  0.296875 -1 0  0.3125 -1 0  0.328125 -1 0  0.34375 -1 0  0.359375 -1 0  0.375 -1 0  0.390625 -1 0  0.40625 -1 0  0.421875 -1 0  0.4375 -1 0  0.453125 -1 0  0.46875 -1 0  0.484375 -1 0  0.5 -1 0  0.515625 -1 0  0.53125 -1 0  0.546875 -1 0  0.5625 -1 0  0.578125 -1 0  0.59375 -1 0  0.609375 -1 0  0.625 -1 0  0.640625 -1 0  0.65625 -1 0  0.671875 -1 0  0.6875 -1 0  0.703125 -1 0  0.71875 -1 0  0.734375 -1 0  0.75 -1 0  0.765625 -1 0  0.78125 -1 0  0.796875 -1 0  0.8125 -1 0  0.828125 -1 0  0.84375 -1 0  0.859375 -1 0  0.875 -1 0  0.890625 -1 0  0.90625 -1 0  0.921875 -1 0  0.9375 -1 0  0.953125 -1 0  0.96875 -1 0  0.984375 -1 0  1 -1 0  -1 -0.984375 0  -0.984375 -0.984375 0  -0.96875 -0.984375 0  -0.953125 -0.984375 0  -0.9375 -0.984375 0  -0.921875 -0.984375 0  -0.90625 -0.984375 0  -0.890625 -0.984375 0  -0.875 -0.984375 0  -0.859375 -0.984375 0  -0.84375 -0.984375 0  -0.828125 -0.984375 0  -0.8125 -0.984375 0  -0.796875 -0.984375 0  -0.78125 -0.984375 0  -0.765625 -0.984375 0  -0.75 -0.984375 0  -0.734375 -0.984375 0  -0.71875 -0.984375 0  -0.703125 -0.984375 0  -0.6875 -0.984375 0  -0.671875 -0.984375 0  -0.65625 -0.984375 0  -0.640625 -0.984375 0  -0.625 -0.984375 0  -0.609375 -0.984375 0  -0.59375 -0.984375 0  -0.578125 -0.984375 0  -0.5625 -0.984375 0  -0.546875 -0.984375 0  -0.53125 -0.984375 0  -0.515625 -0.984375 0  -0.5 -0.984375 0  -0.484375 -0.984375 0  -0.46875 -0.984375 0  -0.453125 -0.984375 0  -0.4375 -0.984375 0  -0.421875 -0.984375 0  -0.40625 -0.984375 0  -0.390625 -0.984375 0  -0.375 -0.984375 0  -0.359375 -0.984375 0  -0.34375 -0.984375 0  -0.328125 -0.984375 0  -0.3125 -0.984375 0  -0.296875 -0.984375 0  -0.28125 -0.984375 0  -0.265625 -0.984375 0  -0.25 -0.984375 0  -0.234375 -0.984375 0  -0.21875 -0.984375 0  -0.203125 -0.984375 0  -0.1875 -0.984375 0  -0.171875 -0.984375 0  -0.15625 -0.984375 0  -0.140625 -0.984375 0  -0.125 -0.984375 0  -0.109375 -0.984375 0  -0.09375 -0.984375 0  -0.078125 -0.984375 0  -0.0625 -0.984375 0  -0.046875 -0.984375 0  -0.03125 -0.984375 0  -0.015625 -0.984375 0  0 -0.984375 0  0.015625 -0.984375 0  0.03125 -0.984375 0  0.046875 -0.984375 0  0.0625 -0.984375 0  0.078125 -0.984375 0  0.09375 -0.984375 0  0.109375 -0.984375 0  0.125 -0.984375 0  0.140625 -0.984375 0  0.15625 -0.984375 0  0.171875 -0.984375 0  0.1875 -0.984375 0  0.203125 -0.984375 0  0.21875 -0.984375 0  0.234375 -0.984375 0  0.25 -0.984375 0  0.265625 -0.984375 0  0.28125 -0.984375 0  0.296875 -0.984375 0  0.3125 -0.984375 0  0.328125 -0.984375 0  0.34375 -0.984375 0  0.359375 -0.984375 0  0.375 -0.984375 0  0.390625 -0.984375 0  0.40625 -0.984375 0  0.421875 -0.984375 0  0.4375 -0.984375 0  0.453125 -0.984375 0  0.46875 -0.984375 0  0.484375 -0.984375 0  0.5 -0.984375 0  0.515625 -0.984375 0  0.53125 -0.984375 0  0.546875 -0.984375 0  0.5625 -0.984375 0  0.578125 -0.984375 0  0.59375 -0.984375 0  0.609375 -0.984375 0  0.625 -0.984375 0  0.640625 -0.984375 0  0.65625 -0.984375 0  0.671875 -0.984375 0  0.6875 -0.984375 0  0.703125 -0.984375 0  0.71875 -0.984375 0  0.734375 -0.984375 0  0.75 -0.984375 0  0.765625 -0.984375 0  0.78125 -0.984375 0  0.796875 -0.984375 0  0.8125 -0.984375 0  0.828125 -0.984375 0  0.84375 -0.984375 0  0.859375 -0.984375 0  0.875 -0.984375 0  0.890625 -0.984375 0  0.90625 -0.984375 0  0.921875 -0.984375 0  0.9375 -0.984375 0  0.953125 -0.984375 0  0.96875 -0.984375 0  0.984375 -0.984375 0  1 -0.984375 0  -1 -0.96875 0  -0.984375 -0.96875 0  -0.96875 -0.96875 0  -0.953125 -0.96875 0  -0.9375 -0.96875 0  -0.921875 -0.96875 0  -0.90625 -0.96875 0  -0.890625 -0.96875 0  -0.875 -0.96875 0  -0.859375 -0.96875 0  -0.84375 -0.96875 0  -0.828125 -0.96875 0  -0.8125 -0.96875 0  -0.796875 -0.96875 0  -0.78125 -0.96875 0  -0.765625 -0.96875 0  -0.75 -0.96875 0  -0.734375 -0.96875 0  -0.71875 -0.96875 0  -0.703125 -0.96875 0  -0.6875 -0.96875 0  -0.671875 -0.96875 0  -0.65625 -0.96875 0  -0.640625 -0.96875 0  -0.625 -0.96875 0  -0.609375 -0.96875 0  -0.59375 -0.96875 0  -0.578125 -0.96875 0  -0.5625 -0.96875 0  -0.546875 -0.96875 0  -0.53125 -0.96875 0  -0.515625 -0.96875 0  -0.5 -0.96875 0  -0.484375 -0.96875 0  -0.46875 -0.96875 0  -0.453125 -0.96875 0  -0.4375 -0.96875 0  -0.421875 -0.96875 0  -0.40625 -0.96875 0  -0.390625 -0.96875 0  -0.375 -0.96875 0  -0.359375 -0.96875 0  -0.34375 -0.96875 0  -0.328125 -0.96875 0  -0.3125 -0.96875 0  -0.296875 -0.96875 0  -0.28125 -0.96875 0  -0.265625 -0.96875 0  -0.25 -0.96875 0  -0.234375 -0.96875 0  -0.21875 -0.96875 0  -0.203125 -0.96875 0  -0.1875 -0.96875 0  -0.171875 -0.96875 0  -0.15625 -0.96875 0  -0.140625 -0.96875 0  -0.125 -0.96875 0  -0.109375 -0.96875 0  -0.09375 -0.96875 0  -0.078125 -0.96875 0  -0.0625 -0.96875 0  -0.046875 -0.96875 0  -0.03125 -0.96875 0  -0.015625 -0.96875 0  0 -0.96875 0  0.015625 -0.96875 0  0.03125 -0.96875 0  0.046875 -0.96875 0  0.0625 -0.96875 0  0.078125 -0.96875 0  0.09375 -0.96875 0  0.109375 -0.96875 0  0.125 -0.96875 0  0.140625 -0.96875 0  0.15625 -0.96875 0  0.171875 -0.96875 0  0.1875 -0.96875 0  0.203125 -0.96875 0  0.21875 -0.96875 0  0.234375 -0.96875 0  0.25 -0.96875 0  0.265625 -0.96875 0  0.28125 -0.96875 0  0.296875 -0.96875 0  0.3125 -0.96875 0  0.328125 -0.96875 0  0.34375 -0.96875 0  0.359375 -0.96875 0  0.375 -0.96875 0  0.390625 -0.96875 0  0.40625 -0.96875 0  0.421875 -0.96875 0  0.4375 -0.96875 0  0.453125 -0.96875 0  0.46875 -0.96875 0  0.484375 -0.96875 0  0.5 -0.96875 0  0.515625 -0.96875 0  0.53125 -0.96875 0  0.546875 -0.96875 0  0.5625 -0.96875 0  0.578125 -0.96875 0  0.59375 -0.96875 0  0.609375 -0.96875 0  0.625 -0.96875 0  0.640625 -0.96875 0  0.65625 -0.96875 0  0.671875 -0.96875 0  0.6875 -0.96875 0  0.703125 -0.96875 0  0.71875 -0.96875 0  0.734375 -0.96875 0  0.75 -0.96875 0  0.765625 -0.96875 0  0.78125 -0.96875 0  0.796875 -0.96875 0  0.8125 -0.96875 0  0.828125 -0.96875 0  0.84375 -0.96875 0  0.859375 -0.96875 0  0.875 -0.96875 0  0.890625 -0.96875 0  0.90625 -0.96875 0  0.921875 -0.96875 0  0.9375 -0.96875 0  0.953125 -0.96875 0  0.96875 -0.96875 0  0.984375 -0.96875 0  1 -0.96875 0  -1 -0.953125 0  -0.984375 -0.953125 0  -0.96875 -0.953125 0  -0.953125 -0.953125 0  -0.9375 -0.953125 0  -0.921875 -0.953125 0  -0.90625 -0.953125 0  -0.890625 -0.953125 0  -0.875 -0.953125 0  -0.859375 -0.953125 0  -0.84375 -0.953125 0  -0.828125 -0.953125 0  -0.8125 -0.953125 0  -0.796875 -0.953125 0  -0.78125 -0.953125 0  -0.765625 -0.953125 0  -0.75 -0.953125 0  -0.734375 -0.953125 0  -0.71875 -0.953125 0  -0.703125 -0.953125 0  -0.6875 -0.953125 0  -0.671875 -0.953125 0  -0.65625 -0.953125 0  -0.640625 -0.953125 0  -0.625 -0.953125 0  -0.609375 -0.953125 0  -0.59375 -0.953125 0  -0.578125 -0.953125 0  -0.5625 -0.953125 0  -0.546875 -0.953125 0  -0.53125 -0.953125 0  -0.515625 -0.953125 0  -0.5 -0.953125 0  -0.484375 -0.953125 0  -0.46875 -0.953125 0  -0.453125 -0.953125 0  -0.4375 -0.953125 0  -0.421875 -0.953125 0  -0.40625 -0.953125 0  -0.390625 -0.953125 0  -0.375 -0.953125 0  -0.359375 -0.953125 0  -0.34375 -0.953125 0  -0.328125 -0.953125 0  -0.3125 -0.953125 0  -0.296875 -0.953125 0  -0.28125 -0.953125 0  -0.265625 -0.953125 0  -0.25 -0.953125 0  -0.234375 -0.953125 0  -0.21875 -0.953125 0  -0.203125 -0.953125 0  -0.1875 -0.953125 0  -0.171875 -0.953125 0  -0.15625 -0.953125 0  -0.140625 -0.953125 0  -0.125 -0.953125 0  -0.109375 -0.953125 0  -0.09375 -0.953125 0  -0.078125 -0.953125 0  -0.0625 -0.953125 0  -0.046875 -0.953125 0  -0.03125 -0.953125 0  -0.015625 -0.953125 0  0 -0.953125 0  0.015625 -0.953125 0  0.03125 -0.953125 0  0.046875 -0.953125 0  0.0625 -0.953125 0  0.078125 -0.953125 0  0.09375 -0.953125 0  0.109375 -0.953125 0  0.125 -0.953125 0  0.140625 -0.953125 0  0.15625 -0.953125 0  0.171875 -0.953125 0  0.1875 -0.953125 0  0.203125 -0.953125 0  0.21875 -0.953125 0  0.234375 -0.953125 0  0.25 -0.953125 0  0.265625 -0.953125 0  0.28125 -0.953125 0  0.296875 -0.953125 0  0.3125 -0.953125 0  0.328125 -0.953125 0  0.34375 -0.953125 0  0.359375 -0.953125 0  0.375 -0.953125 0  0.390625 -0.953125 0  0.40625 -0.953125 0  0.421875 -0.953125 0  0.4375 -0.953125 0  0.453125 -0.953125 0  0.46875 -0.953125 0  0.484375 -0.953125 0  0.5 -0.953125 0  0.515625 -0.953125 0  0.53125 -0.953125 0  0.546875 -0.953125 0  0.5625 -0.953125 0  0.578125 -0.953125 0  0.59375 -0.953125 0  0.609375 -0.953125 0  0.625 -0.953125 0  0.640625 -0.953125 0  0.65625 -0.953125 0  0.671875 -0.953125 0  0.6875 -0.953125 0  0.703125 -0.953125 0  0.71875 -0.953125 0  0.734375 -0.953125 0  0.75 -0.953125 0  0.765625 -0.953125 0  0.78125 -0.953125 0  0.796875 -0.953125 0  0.8125 -0.9
[...]
<PointData  Scalars="f_12"> 
<DataArray  type="Float64"  Name="f_12"  format="ascii">-4.5743828942402731e-01  -4.5732434492327267e-01  -4.5698245656432762e-01  -4.5641246039971822e-01  -4.5561408525652403e-01  -4.5458695583740011e-01  -4.5333059704539902e-01  -4.5184443951587971e-01  -4.5012782633388337e-01  -4.4818002091034731e-01  -4.4600021598543671e-01  -4.4358754372207604e-01  -4.4094108684749123e-01  -4.3805989079523006e-01  -4.3494297679475113e-01  -4.3158935585029651e-01  -4.2799804354542520e-01  -4.2416807560435188e-01  -4.2009852413614440e-01  -4.1578851448295856e-01  -4.1123724258889166e-01  -4.0644399280176691e-01  -4.0140815601629365e-01  -3.9612924806362254e-01  -3.9060692824938870e-01  -3.8484101793994335e-01  -3.7883151909464008e-01  -3.7257863264078717e-01  -3.6608277658720223e-01  -3.5934460377220584e-01  -3.5236501914234075e-01  -3.4514519645908126e-01  -3.3768659433226172e-01  -3.2999097148085499e-01  -3.2206040112404649e-01  -3.1389728440819703e-01  -3.0550436277826765e-01  -2.9688472920553083e-01  -2.8804183818690665e-01  -2.7897951443502622e-01  -2.6970196018215392e-01  -2.6021376102541344e-01  -2.5051989024540405e-01  -2.4062571153532991e-01  -2.3053698008326023e-01  -2.2025984195618370e-01  -2.0980083174120828e-01  -1.9916686840667469e-01  -1.8836524935419052e-01  -1.7740364264172453e-01  -1.6629007736797943e-01  -1.5503293221932005e-01  -1.4364092219255864e-01  -1.3212308351985091e-01  -1.2048875683574696e-01  -1.0874756864093382e-01  -9.6909411132228188e-02  -8.4984420483699308e-02  -7.2982953679171819e-02  -6.0915564011474826e-02  -4.8792975378358895e-02  -3.6626055518667849e-02  -2.4425788344801400e-02  -1.2203245538429393e-02  3.0442414468110488e-05  1.2264115566100093e-02  2.4486614038956037e-02  3.6686807557111158e-02  4.8853624786385545e-02  6.0976082295464945e-02  7.3043312954937739e-02  8.5044593598293639e-02  9.6969371778070218e-02  1.0880729146127792e-01  1.2054821752069934e-01  1.3218225889233248e-01  1.4369979028380439e-01  1.5509147233369711e-01  1.6634827013708683e-01  1.7746147006790619e-01  1.8842269484374516e-01  1.9922391679317794e-01  2.0985746929947327e-01  2.2031605640747315e-01  2.3059276059243133e-01  2.4068104870063589e-01  2.5057477608170303e-01  2.6026818894154014e-01  2.6975592495320244e-01  2.7903301217026760e-01  2.8809486629403586e-01  2.9693728635189282e-01  3.0555644884966698e-01  3.1394890046584589e-01  3.2211154936014891e-01  3.3004165517327755e-01  3.3773681779868431e-01  3.4519496501097485e-01  3.5241433903906833e-01  3.5939348217550426e-01  3.6613122151625382e-01  3.7262665292806374e-01  3.7887912434265852e-01  3.8488821847905164e-01  3.9065373509667028e-01  3.9617567288298533e-01  4.0145421107979062e-01  4.0648969095217929e-01  4.1128259720358767e-01  4.1583353943903095e-01  4.2014323377681706e-01  4.2421248470663758e-01  4.2804216728900668e-01  4.3163320978759628e-01  4.3498657682214925e-01  4.3810325312538462e-01  4.4098422798270920e-01  4.4363048042867897e-01  4.4604296526906201e-01  4.4822259999212116e-01  4.5017025262740040e-01  4.5188673060492035e-01  4.5337277066231241e-01  4.5462902984207987e-01  4.5565607761590071e-01  4.5645438916769360e-01  4.5702433986206936e-01  4.5736620091979324e-01  4.5748013631696471e-01  -4.5755223392478189e-01  -4.5743831685236785e-01  -4.5709651046715982e-01  -4.5652664988901065e-01  -4.5572846239448883e-01  -4.5470157052383881e-01  -4.5344549641415810e-01  -4.5195966734211834e-01  -4.5024342245465321e-01  -4.4829602066103469e-01  -4.4611664965466180e-01  -4.4370443602768805e-01  -4.4105845643632963e-01  -4.3817774976933893e-01  -4.3506133026673910e-01  -4.3170820153050488e-01  -4.2811737136352612e-01  -4.2428786736791901e-01  -4.2021875322863367e-01  -4.1590914560339926e-01  -4.1135823153542062e-01  -4.0656528630094102e-01  -4.0152969159989244e-01  -3.9625095399440385e-01  -3.9072872349699428e-01  -3.8496281220787204e-01  -3.7895321289891459e-01  -3.7270011744065246e-01  -3.6620393496790687e-01  -3.5946530967963858e-01  -3.5248513816903548e-01  -3.4526458618085792e-01  -3.3780510469454972e-01  -3.3010844523354765e-01  -3.2217667430355523e-01  -3.1401218686522031e-01  -3.0561771874964788e-01  -2.9699635792844215e-01  -2.8815155455349079e-01  -2.7908712968546312e-01  -2.6980728263401010e-01  -2.6031659683694647e-01  -2.5062004421030643e-01  -2.4072298790616373e-01  -2.3063118342055994e-01  -2.2035077799988398e-01  -2.0988830830068742e-01  -1.9925069626529465e-01  -1.8844524318376768e-01  -1.7747962192189043e-01  -1.6636186730490368e-01  -1.5510036465778257e-01  -1.4370383651489421e-01  -1.3218132752487222e-01  -1.2054218759039841e-01  -1.0879605329716670e-01  -9.6952827701434555e-02  -8.5022658561021772e-02  -7.3015915110129323e-02  -6.0943163493627522e-02  -4.8815140991179742e-02  -3.6642729175396002e-02  -2.4436926160815400e-02  -1.2208818111583334e-02  3.0449815075447714e-05  1.2269702905329432e-02  2.4497766516020661e-02  3.6703495701149537e-02  4.8875804645979862e-02  6.1003695719682040e-02  7.3076287962347136e-02  8.5082844829392573e-02  9.7012801025643219e-02  1.0885578827245859e-01  1.2060165986389761e-01  1.3224051388174871e-01  1.4376271495397283e-01  1.5515891445637947e-01  1.6642006907286019e-01  1.7753745764494439e-01  1.8850269625655594e-01  1.9930775151441196e-01  2.0994495199834010e-01  2.2040699786876211e-01  2.3068696863061958e-01  2.4077832906405375e-01  2.5067493334219915e-01  2.6037102736553558e-01  2.6986124935043049e-01  2.7914062871686302e-01  2.8820458332695220e-01  2.9704891513190518e-01  3.0566980429044394e-01  3.1406380182676913e-01  3.2222782090072588e-01  3.3015912676713133e-01  3.3785532550523767e-01  3.4531435160307011e-01  3.5253445448489490e-01  3.5951418407334557e-01  3.6625237548072281e-01  3.7274813292667064e-01  3.7900081298175903e-01  3.8501000723843865e-01  3.9077552451232206e-01  3.9629737267774007e-01  4.0157574024199899e-01  4.0661097776266941e-01  4.1140357921157028e-01  4.1595416338785951e-01  4.2026345548079991e-01  4.2433226888036352e-01  4.2816148733089654e-01  4.3175204751961466e-01  4.3510492218780822e-01  4.3822110384833995e-01  4.4110158918838660e-01  4.4374736423147237e-01  4.4615939032772395e-01  4.4833859103601109e-01  4.5028583995628002e-01  4.5200194956498435e-01  4.5348766110112476e-01  4.5474363554505315e-01  4.5577044572691472e-01  4.5656856959640213e-01  4.5713838468039542e-01  4.5748016375006950e-01  4.5759407171413619e-01  -4.5789401257036461e-01  -4.5778017809425725e-01  -4.5743861856293327e-01  -4.5686916629467572e-01  -4.5607154390858184e-01  -4.5504536744930840e-01  -4.5379015074527640e-01  -4.5230531098378246e-01  -4.5059017548157659e-01  -4.4864398962447649e-01  -4.4646592594448775e-01  -4.4405509429768497e-01  -4.4141055310079952e-01  -4.3853132157905678e-01  -4.3541639297236168e-01  -4.3206474864145777e-01  -4.2847537301025501e-01  -4.2464726927516416e-01  -4.2057947580707189e-01  -4.1627108316658434e-01  -4.1172125164845036e-01  -4.0692922926668401e-01  -4.0189437008793139e-01  -3.9661615281710566e-01  -3.9109419953631225e-01  -3.8532829449563527e-01  -3.7931840285249252e-01  -3.7306468925499936e-01  -3.6656753616413101e-01  -3.5982756180940118e-01  -3.5284563767329685e-01  -3.4562290540075358e-01  -3.3816079303151397e-01  -3.3046103045520492e-01  -3.2252566399136956e-01  -3.1435706999942864e-01  -3.0595796742658760e-01  -2.9733142920499711e-01  -2.8848089241301228e-01  -2.7941016711913841e-01  -2.7012344383122971e-01  -2.6062529947773372e-01  -2.5092070185229765e-01  -2.4101501245793561e-01  -2.3091398769228078e-01  -2.2062377832130678e-01  -2.1015092719540002e-01  -1.9950236516890638e-01  -1.8868540519236188e-01  -1.7770773455563574e-01  -1.6657740527023743e-01  -1.5530282259010281e-01  -1.4389273168228961e-01  -1.3235620247213806e-01  -1.2070261270150844e-01  -1.0894162925355989e-01  -9.7083187813000529e-02  -8.5137470946587773e-02  -7.3114884704614080e-02  -6.1026033859867039e-02  -4.8881695915765550e-02  -3.6692794029695365e-02  -2.4470369010646774e-02  -1.2225550561753609e-02  3.0472052058173587e-05  1.2286479723653375e-02  2.4531253417758837e-02  3.6753604084211064e-02  4.8942402375087998e-02  6.1086607973041447e-02  7.3175298343266734e-02  8.5197696729031408e-02  9.7143199220320123e-02  1.0900140073667303e-01  1.2076211977838884e-01  1.3241542181459484e-01  1.4395164119189977e-01  1.5536140146309635e-01  1.6663563405132528e-01  1.7776559518094634e-01  1.8874288102180983e-01  1.9955944100845188e-01  2.1020758930976952e-01  2.2068001443783491e-01  2.3096978699659523e-01  2.4107036558225053e-01  2.5097560085710158e-01  2.6067973782765969e-01  2.7017741636588183e-01  2.7946367001962091e-01  2.8853392316487048e-01  2.9738398655823328e-01  3.0601005135336329e-01  3.1440868165001024e-01  3.2257680564881885e-01  3.3051170548925946e-01  3.3821100585204811e-01  3.4567266141116160e-01  3.5289494322408832e-01  3.5987642415225557e-01  3.6661596340661812e-01  3.7311269031613498e-01  3.7936598741926675e-01  3.8537547298062147e-01  3.9114098303643885e-01  3.9666255307365339e-01  4.0194039944779569e-01  4.0697490064492892e-01  4.1176657849216447e-01  4.1631607942003723e-01  4.2062415587815921e-01  4.2469164800312009e-01  4.2851946563460153e-01  4.3210857077215781e-01  4.3545996056112907e-01  4.3857465089178033e-01  4.4145366069102487e-01  4.4409799698110031e-01  4.4650864077435048e-01  4.4868653386791918e-01  4.5063256659672418e-01  4.5234756659761255e-01  4.5383228863214919e-01  4.5508740551009297e-01  4.5611350015030316e-01  4.5691105881060451e-01  4.5748046551304061e-01  4.5782199768595316e-01  4.5793582303944114e-01  -4.5846346016816197e-01  -4.5834976439136316e-01  -4.5800861939564036e-01  -4.5743985281817701e-01  -4.5664317949585437e-01  -4.5561820461953650e-01  -4.5436442813385652e-01  -4.5288125036615845e-01  -4.5116797886339427e-01  -4.4922383641080738e-01  -4.4704797020112785e-01  -4.4463946211776478e-01  -4.4199734009012664e-01  -4.3912059047372726e-01  -4.3600817140219317e-01  -4.3265902705270987e-01  -4.2907210276087160e-01  -4.2524636091541068e-01  -4.2118079755790511e-01  -4.1687445960741570e-01  -4.1232646262511236e-01  -4.0753600902941300e-01  -4.0250240666804282e-01  -3.9722508764977449e-01  -3.9170362733551262e-01  -3.8593776338586311e-01  -3.7992741476041825e-01  -3.7367270056271723e-01  -3.6717395862420987e-01  -3.6043176372052832e-01  -3.5344694531398152e-01  -3.4622060471732202e-01  -3.3875413157551276e-01  -3.3104921956433725e-01  -3.2310788120721484e-01  -3.1493246171443162e-01  -3.0652565175212843e-01  -2.9789049905174114e-01  -2.8903041877414309e-01  -2.7994920254647282e-01  -2.7065102609353919e-01  -2.6114045538981251e-01  -2.5142245126238233e-01  -2.4150237237994732e-01  -2.3138597656800958e-01  -2.2107942039605508e-01  -2.1058925698876044e-01  -1.9992243202026744e-01  -1.8908627785845081e-01  -1.7808850583496977e-01  -1.6693719662683074e-01  -1.5564078874625273e-01  -1.4420806514784315e-01  -1.3264813797543251e-01  -1.2097043148530215e-01  -1.0918466319784637e-01  -9.7300823345740584e-02  -8.5329152703206540e-02  -7.3280118897674690e-02  -6.1164391321713502e-02  -4.8992814779153501e-02  -3.6776382014503346e-02  -2.4526205288642803e-02  -1.2253487176017356e-02  3.0509231195445559e-05  1.2314490518519974e-02  2.4587163345354688e-02  3.6837264840272409e-02  4.9053592793860644e-02  6.1225035450304492e-02  7.3340600704389525e-02  8.5389444518595550e-02  9.7360898385228128e-02  1.0924449567079753e-01  1.2102999669375961e-01  1.3270741240190970e-01  1.4426702653178150e-01  1.5569941614896571e-01  1.6699547048495980e-01  1.7814640800266293e-01  1.8914379163863912e-01  1.9997954218555367e-01  2.1064594979254891e-01  2.2113568357463931e-01  2.3144179933439468e-01  2.4155774541022451e-01  2.5147736667548626e-01  2.6119490672148976e-01  2.7070500826533384e-01  2.8000271183050451e-01  2.8908345275440522e-01  2.9794305658259623e-01  3.0657773291462281e-01  3.1498406777098831e-01  3.2315901455520851e-01  3.3109988368899024e-01  3.3880433100250001e-01  3.4627034496541731e-01  3.5349623284802606e-01  3.6048060590496078e-01  3.6722236367735256e-01  3.7372067751198040e-01  3.7997497339854908e-01  3.8598491422834025e-01  3.9175038157915765e-01  3.9727145713263867e-01  4.0254840383060120e-01  4.0758164687708603e-01  4.1237175469212128e-01  4.1691941992196579e-01  4.2122544060867978e-01  4.2529070161935550e-01  4.2911615643223144e-01  4.3270280937328554e-01  4.3605169839276997e-01  4.3916387846662724e-01  4.4204040570283232e-01  4.4468232222755377e-01  4.4709064192065867e-01  4.4926633706459113e-01  4.5121032596508498e-01  4.5292346159659258e-01  4.5440652131976655e-01  4.5566019771286659e-01  4.5668509055360040e-01  4.5748169998267230e-01  4.5805042087520936e-01  4.5839153844126174e-01  4.5850522507172198e-01  -4.5926029931955697e-01  -4.5914679990739338e-01  -4.5880624181008794e-01  -4.5823844608653763e-01  -4.5744311663712234e-01  -4.5641984339912661e-01  -4.5516810680445502e-01  -4.5368728348360088e-01  -4.5197665319503477e-01  -4.5003540695423150e-01  -4.4786265633145167e-01  -4.4545744388211933e-01  -4.4281875466821469e-01  -4.3994552882353216e-01  -4.3683667510997448e-01  -4.3349108540631653e-01  -4.2990765006511089e-01  -4.2608527406770164e-01  -4.2202289390172198e-01  -4.1771949508006118e-01  -4.1317413021516985e-01  -4.0838593755781244e-01  -4.0335415990505202e-01  -3.9807816377843563e-01  -3.9255745877009879e-01  -3.8679171695188330e-01  -3.8078079224059402e-01  -3.7452473961123345e-01  -3.6802383404944972e-01  -3.6127858913450062e-01  -3.5428977514474819e-01  -3.4705843657899371e-01  -3.3958590898880864e-01  -3.3187383501931533e-01  -3.2392417955857428e-01  -3.1573924389874530e-01  -3.0732167881545980e-01  -2.9867449647528926e-01  -2.8980108108479113e-01  -2.8070519819832518e-01  -2.7139100260565469e-01  -2.6186304472430788e-01  -2.5212627542581817e-01  -2.4218604922937029e-01  -2.3204812580114992e-01  -2.2171866970294912e-01  -2.1120424833946480e-01  -2.0051182806037635e-01  -1.8964876838086164e-01  -1.7862281429282997e-01  -1.6744208664894855e-01  -1.5611507061257826e-01  -1.4465060217908207e-01  -1.3305785278759455e-01  -1.2134631205719902e-01  -1.0952576869739639e-01  -9.7606289659598319e-02  -8.5598197613853080e-02  -7.3512046852813137e-02  -6.1358597742702685e-02  -4.9148789858332341e-02  -3.6893713955609718e-02  -2.4604582950064575e-02  -1.2292702083231277e-02  3.0561530091649342e-05  1.2353809771984806e-02  2.4665644601286542e-02  3.6954699132529620e-02  4.9209668503283260e-02  6.1419340322306296e-02  7.3572624496909933e-02  8.5658582246668544e-02  9.7666454121828811e-02  1.0958568685811571e-01  1.2140595891472200e-01  1.3311720455867709e-01  1.4470963637608131e-01  1.5617376610843031e-01  1.6750042373004143e-01  1.7868077470005045e-01  1.8970633533926437e-01  2.0056898629807379e-01  2.1126098409644936e-01  2.2177497073064861e-01  2.3210398135357171e-01  2.4224145004672482e-01  2.5218121371151808e-01  2.6191751411622710e-01  2.7144499814250056e-01  2.8075871628193555e-01  2.8985411943911216e-01  2.9872705410273065e-01  3.0737375595125971e-01  3.1579084196391044e-01  3.2397530111189560e-01  3.3192448370889555e-01  3.3963608950347823e-01  3.4710815459993721e-01  3.5433903729760913e-01  3.6132740294218990e-01  3.6807220788583828e-01  3.7457268265587734e-01  3.8082831443460424e-01  3.8683882895502991e-01  3.9260417191921104e-01  3.9812449004714123e-01  4.0340011186488389e-01  4.0843152834069213e-01  4.1321937347726878e-01  4.1776440496702438e-01  4.2206748501523889e-01  4.2612956143339026e-01  4.2995164910168338e-01  4.3353481189598270e-01  4.3688014517003804e-01  4.3998875887912653e-01  4.4286176142612360e-01  4.4550024430562385e-01  4.4790526761613964e-01  4.5007784650470201e-01  4.5201893860243231e-01  4.5372943250390629e-01  4.5521013733745785e-01  4.5646177346800626e-01  4.5748496436855918e-01  4.5828022969127458e-01  4.5884797956386286e-01  4.5918851013216233e-01  4.5930200036492325e-01  -4.6028413729527906e-01  -4.6017089410856543e-01  -4.5983110185078035e-01  -4.5926457308076357e-01  -4.5847099756697052e-01  -4.5744994553539259e-01  -4.5620087220123628e-01  -4.5472312356875577e-01  -4.5301594347891255e-01  -4.5107848187963218e-01  -4.4890980428832794e-01  -4.4650890241104568e-01  -4.4387470587708067e-01  -4.4100609504221222e-01  -4.3790191480785601e-01  -4.3456098939747079e-01  -4.3098213802555385e-01  -4.2716419138856326e-01  -4.2310600890121985e-01  -4.1880649659593666e-01  -4.1426462559769289e-01  -4.0947945108161399e-01  -4.0445013161591586e-01  -3.9917594878881513e-01  -3.9365632701455999e-01  -3.8789085341097118e-01  -3.8187929763883149e-01  -3.7562163159215745e-01  -3.6911804882782973e-01  -3.6236898362323750e-01  -3.5537512955145723e-01  -3.4813745746500580e-01  -3.4065723278127785e-01  -3.3293603196534333e-01  -3.2497575810873519e-01  -3.1677865550610712e-01  -3.0834732313510244e-01  -2.9968472694837017e-01  -2.9079421089032215e-01  -2.8167950655492335e-01  -2.7234474140451476e-01  -2.6279444547342584e-01  -2.5303355648397347e-01  -2.4306742330646738e-01  -2.3290180769916421e-01  -2.2254288426886390e-01  -2.1199723859821434e-01  -2.0127186349193626e-01  -1.9037415330130800e-01  -1.7931189629450789e-01  -1.6809326504998490e-01  -1.5672680486100316e-01  -1.4522142015198791e-01  -1.3358635892128584e-01  -1.2183119524039598e-01  -1.0996580985651136e-01  -9.8000368963120879e-02  -8.5945301222180442e-02  -7.3811273140622899e-02  -6.1609162923311804e-02  -4.9350032943496748e-02  -3.7045100989897856e-02  -2.4705710466224644e-02  -1.2343299733729779e-02  3.0629200151044753e-05  1.2404542434311364e-02  2.4766906148227602e-02  3.7106218575175938e-02  4.9411041751662776e-02  6.1670032823742726e-02  7.3871974697599263e-02  8.6005805831519413e-02  9.8060648978883308e-02  1.1002583870661208e-01  1.2189094753021491e-01  1.3364581052465305e-01  1.4528054828918868e-01  1.5678558816371252e-01  1.6815168361328220e-01  1.7936993171633969e-01  1.9043178870995531e-01  2.0132908356219209e-01  2.1205402955709965e-01  2.2259923389179273e-01  2.3295770529752047e-01  2.4312285970758069e-01  2.5308852400447551e-01  2.6284893788694624e-01  2.7239875390462842e-01  2.8173303571420982e-01  2.9084725461632654e-01  2.9973728443718561e-01  3.0839939482322071e-01  3.1683024302110435e-01  3.2502686421929233e-01  3.3298666053102804e-01  3.4070738870245082e-01  3.4818714663315753e-01  3.5542435880022621e-01  3.6241776068031423e-01  3.6916638226790949e-01  3.7566953079107140e-01  3.8192677272895104e-01  3.8793791523795867e-01  3.9370298709551177e-01  3.9922221927182938e-01  4.0449602524109973e-01  4.0952498114353014e-01  4.1430980590923677e-01  4.1885134145362429e-01  4.2315053305186101e-01  4.2720840999728349e-01  4.3102606664512894e-01  4.3460464393892412e-01  4.3794531151227323e-01  4.4104925045371673e-01  4.4391763681691154e-01  4.4655162595267872e-01  4.4895233773357385e-01  4.5112084273564473e-01  4.5305814943603612e-01  4.5476519247914243e-01  4.5624282205815225e-01  4.5749179445314153e-01  4.5851276376135547e-01  4.5930627485000397e-01  4.5987275755680529e-01  4.6021252215860137e-01  4.6032575612364629e-01  -4.6153446164442880e-01  -4.6142153738080888e-01  -4.6108269840370442e-01  -4.6051774681876584e-01  -4.5972635501460341e-01  -4.5870806897423683e-01  -4.5746231289634182e-01  -4.5598839511127370e-01  -4.5428551527222727e-01  -4.5235277279705727e-01  -4.5018917653118262e-01  -4.4779365559665507e-01  -4.4516507138684991e-01  -4.4230223066038021e-01  -4.3920389968176632e-01  -4.3586881935015692e-01  -4.3229572125107074e-01  -4.2848334455977743e-01  -4.2443045371865706e-01  -4.2013585680477211e-01  -4.1559842449805046e-01  -4.1081710955503342e-01  -4.0579096668818010e-01  -4.0051917274634496e-01  -3.9500104708834782e-01  -3.8923607203859834e-01  -3.8322391331158451e-01  -3.7696444029070453e-01  -3.7045774604642662e-01  -3.6370416697908736e-01  -3.5670430197272246e-01  -3.4945903094812097e-01  -3.4196953270569508e-01  -3.3423730195166457e-01  -3.2626416540436537e-01  -3.1805229688105935e-01  -3.0960423126936731e-01  -3.0092287729123479e-01  -2.92