<?xml version="1.0"?>
<VTKFile type="UnstructuredGrid"  version="0.1"  >
<UnstructuredGrid>
<Piece  NumberOfPoints="16641" NumberOfCells="32768">
<Points>
<DataArray  type="Float64"  NumberOfComponents="3"  format="ascii">-1 -1 0  -0.984375 -1 0  -0.96875 -1 0  -0.953125 -1 0  -0.9375 -1 0  -0.921875 -1 0  -0.90625 -1 0  -0.890625 -1 0  -0.875 -1 0  -0.859375 -1 0  -0.84375 -1 0  -0.828125 -1 0  -0.8125 -1 0  -0.796875 -1 0  -0.78125 -1 0  -0.765625 -1 0  -0.75 -1 0  -0.734375 -1 0  -0.71875 -1 0  -0.703125 -1 0  -0.6875 -1 0  -0.671875 -1 0  -0.65625 -1 0  -0.640625 -1 0  -0.625 -1 0  -0.609375 -1 0  -0.59375 -1 0  -0.578125 -1 0  -0.5625 -1 0  -0.546875 -1 0  -0.53125 -1 0  -0.515625 -1 0  -0.5 -1 0  -0.484375 -1 0  -0.46875 -1 0  -0.453125 -1 0  -0.4375 -1 0  -0.421875 -1 0  -0.40625 -1 0  -0.390625 -1 0  -0.375 -1 0  -0.359375 -1 0  -0.34375 -1 0  -0.328125 -1 0  -0.3125 -1 0  -0.296875 -1 0  -0.28125 -1 0  -0.265625 -1 0  -0.25 -1 0  -0.234375 -1 0  -0.21875 -1 0  -0.203125 -1 0  -0.1875 -1 0  -0.171875 -1 0  -0.15625 -1 0  -0.140625 -1 0  -0.125 -1 0  -0.109375 -1 0  -0.09375 -1 0  -0.078125 -1 0  -0.0625 -1 0  -0.046875 -1 0  -0.03125 -1 0  -0.015625 -1 0  0 -1 0  0.015625 -1 0  0.03125 -1 0  0.046875 -1 0  0.0625 -1 0  0.078125 -1 0  0.09375 -1 0  0.109375 -1 0  0.125 -1 0  0.140625 -1 0  0.15625 -1 0  0.171875 -1 0  0.1875 -1 0  0.203125 -1 0  0.21875 -1 0  0.234375 -1 0  0.25 -1 0  0.265625 -1 0  0.28125 -1 0  0.296875 -1 0  0.3125 -1 0  0.328125 -1 0  0.34375 -1 0  0.359375 -1 0  0.375 -1 0  0.390625 -1 0  0.40625 -1 0  0.421875 -1 0  0.4375 -1 0  0.453125 -1 0  0.46875 -1 0  0.484375 -1 0  0.5 -1 0  0.515625 -1 0  0.53125 -1 0  0.546875 -1 0  0.5625 -1 0  0.578125 -1 0  0.59375 -1 0  0.609375 -1 0  0.625 -1 0  0.640625 -1 0  0.65625 -1 0  0.671875 -1 0  0.6875 -1 0  0.703125 -1 0  0.71875 -1 0  0.734375 -1 0  0.75 -1 0  0.765625 -1 0  0.78125 -1 0  0.796875 -1 0  0.8125 -1 0  0.828125 -1 0  0.84375 -1 0  0.859375 -1 0  0.875 -1 0  0.890625 -1 0  0.90625 -1 0  0.921875 -1 0  0.9375 -1 0  0.953125 -1 0  0.96875 -1 0  0.984375 -1 0  1 -1 0  -1 -0.984375 0  -0.984375 -0.984375 0  -0.96875 -0.984375 0  -0.953125 -0.984375 0  -0.9375 -0.984375 0  -0.921875 -0.984375 0  -0.90625 -0.984375 0  -0.890625 -0.984375 0  -0.875 -0.984375 0  -0.859375 -0.984375 0  -0.84375 -0.984375 0  -0.828125 -0.984375 0  -0.8125 -0.984375 0  -0.796875 -0.984375 0  -0.78125 -0.984375 0  -0.765625 -0.984375 0  -0.75 -0.984375 0  -0.734375 -0.984375 0  -0.71875 -0.984375 0  -0.703125 -0.984375 0  -0.6875 -0.984375 0  -0.671875 -0.984375 0  -0.65625 -0.984375 0  -0.640625 -0.984375 0  -0.625 -0.984375 0  -0.609375 -0.984375 0  -0.59375 -0.984375 0  -0.578125 -0.984375 0  -0.5625 -0.984375 0  -0.546875 -0.984375 0  -0.53125 -0.984375 0  -0.515625 -0.984375 0  -0.5 -0.984375 0  -0.484375 -0.984375 0  -0.46875 -0.984375 0  -0.453125 -0.984375 0  -0.4375 -0.984375 0  -0.421875 -0.984375 0  -0.40625 -0.984375 0  -0.390625 -0.984375 0  -0.375 -0.984375 0  -0.359375 -0.984375 0  -0.34375 -0.984375 0  -0.328125 -0.984375 0  -0.3125 -0.984375 0  -0.296875 -0.984375 0  -0.28125 -0.984375 0  -0.265625 -0.984375 0  -0.25 -0.984375 0  -0.234375 -0.984375 0  -0.21875 -0.984375 0  -0.203125 -0.984375 0  -0.1875 -0.984375 0  -0.171875 -0.984375 0  -0.15625 -0.984375 0  -0.140625 -0.984375 0  -0.125 -0.984375 0  -0.109375 -0.984375 0  -0.09375 -0.984375 0  -0.078125 -0.984375 0  -0.0625 -0.984375 0  -0.046875 -0.984375 0  -0.03125 -0.984375 0  -0.015625 -0.984375 0  0 -0.984375 0  0.015625 -0.984375 0  0.03125 -0.984375 0  0.046875 -0.984375 0  0.0625 -0.984375 0  0.078125 -0.984375 0  0.09375 -0.984375 0  0.109375 -0.984375 0  0.125 -0.984375 0  0.140625 -0.984375 0  0.15625 -0.984375 0  0.171875 -0.984375 0  0.1875 -0.984375 0  0.203125 -0.984375 0  0.21875 -0.984375 0  0.234375 -0.984375 0  0.25 -0.984375 0  0.265625 -0.984375 0  0.28125 -0.984375 0  0.296875 -0.984375 0  0.3125 -0.984375 0  0.328125 -0.984375 0  0.34375 -0.984375 0  0.359375 -0.984375 0  0.375 -0.984375 0  0.390625 -0.984375 0  0.40625 -0.984375 0  0.421875 -0.984375 0  0.4375 -0.984375 0  0.453125 -0.984375 0  0.46875 -0.984375 0  0.484375 -0.984375 0  0.5 -0.984375 0  0.515625 -0.984375 0  0.53125 -0.984375 0  0.546875 -0.984375 0  0.5625 -0.984375 0  0.578125 -0.984375 0  0.59375 -0.984375 0  0.609375 -0.984375 0  0.625 -0.984375 0  0.640625 -0.984375 0  0.65625 -0.984375 0  0.671875 -0.984375 0  0.6875 -0.984375 0  0.703125 -0.984375 0  0.71875 -0.984375 0  0.734375 -0.984375 0  0.75 -0.984375 0  0.765625 -0.984375 0  0.78125 -0.984375 0  0.796875 -0.984375 0  0.8125 -0.984375 0  0.828125 -0.984375 0  0.84375 -0.984375 0  0.859375 -0.984375 0  0.875 -0.984375 0  0.890625 -0.984375 0  0.90625 -0.984375 0  0.921875 -0.984375 0  0.9375 -0.984375 0  0.953125 -0.984375 0  0.96875 -0.984375 0  0.984375 -0.984375 0  1 -0.984375 0  -1 -0.96875 0  -0.984375 -0.96875 0  -0.96875 -0.96875 0  -0.953125 -0.96875 0  -0.9375 -0.96875 0  -0.921875 -0.96875 0  -0.90625 -0.96875 0  -0.890625 -0.96875 0  -0.875 -0.96875 0  -0.859375 -0.96875 0  -0.84375 -0.96875 0  -0.828125 -0.96875 0  -0.8125 -0.96875 0  -0.796875 -0.96875 0  -0.78125 -0.96875 0  -0.765625 -0.96875 0  -0.75 -0.96875 0  -0.734375 -0.96875 0  -0.71875 -0.96875 0  -0.703125 -0.96875 0  -0.6875 -0.96875 0  -0.671875 -0.96875 0  -0.65625 -0.96875 0  -0.640625 -0.96875 0  -0.625 -0.96875 0  -0.609375 -0.96875 0  -0.59375 -0.96875 0  -0.578125 -0.96875 0  -0.5625 -0.96875 0  -0.546875 -0.96875 0  -0.53125 -0.96875 0  -0.515625 -0.96875 0  -0.5 -0.96875 0  -0.484375 -0.96875 0  -0.46875 -0.96875 0  -0.453125 -0.96875 0  -0.4375 -0.96875 0  -0.421875 -0.96875 0  -0.40625 -0.96875 0  -0.390625 -0.96875 0  -0.375 -0.96875 0  -0.359375 -0.96875 0  -0.34375 -0.96875 0  -0.328125 -0.96875 0  -0.3125 -0.96875 0  -0.296875 -0.96875 0  -0.28125 -0.96875 0  -0.265625 -0.96875 0  -0.25 -0.96875 0  -0.234375 -0.96875 0  -0.21875 -0.96875 0  -0.203125 -0.96875 0  -0.1875 -0.96875 0  -0.171875 -0.96875 0  -0.15625 -0.96875 0  -0.140625 -0.96875 0  -0.125 -0.96875 0  -0.109375 -0.96875 0  -0.09375 -0.96875 0  -0.078125 -0.96875 0  -0.0625 -0.96875 0  -0.046875 -0.96875 0  -0.03125 -0.96875 0  -0.015625 -0.96875 0  0 -0.96875 0  0.015625 -0.96875 0  0.03125 -0.96875 0  0.046875 -0.96875 0  0.0625 -0.96875 0  0.078125 -0.96875 0  0.09375 -0.96875 0  0.109375 -0.96875 0  0.125 -0.96875 0  0.140625 -0.96875 0  0.15625 -0.96875 0  0.171875 -0.96875 0  0.1875 -0.96875 0  0.203125 -0.96875 0  0.21875 -0.96875 0  0.234375 -0.96875 0  0.25 -0.96875 0  0.265625 -0.96875 0  0.28125 -0.96875 0  0.296875 -0.96875 0  0.3125 -0.96875 0  0.328125 -0.96875 0  0.34375 -0.96875 0  0.359375 -0.96875 0  0.375 -0.96875 0  0.390625 -0.96875 0  0.40625 -0.96875 0  0.421875 -0.96875 0  0.4375 -0.96875 0  0.453125 -0.96875 0  0.46875 -0.96875 0  0.484375 -0.96875 0  0.5 -0.96875 0  0.515625 -0.96875 0  0.53125 -0.96875 0  0.546875 -0.96875 0  0.5625 -0.96875 0  0.578125 -0.96875 0  0.59375 -0.96875 0  0.609375 -0.96875 0  0.625 -0.96875 0  0.640625 -0.96875 0  0.65625 -0.96875 0  0.671875 -0.96875 0  0.6875 -0.96875 0  0.703125 -0.96875 0  0.71875 -0.96875 0  0.734375 -0.96875 0  0.75 -0.96875 0  0.765625 -0.96875 0  0.78125 -0.96875 0  0.796875 -0.96875 0  0.8125 -0.96875 0  0.828125 -0.96875 0  0.84375 -0.96875 0  0.859375 -0.96875 0  0.875 -0.96875 0  0.890625 -0.96875 0  0.90625 -0.96875 0  0.921875 -0.96875 0  0.9375 -0.96875 0  0.953125 -0.96875 0  0.96875 -0.96875 0  0.984375 -0.96875 0  1 -0.96875 0  -1 -0.953125 0  -0.984375 -0.953125 0  -0.96875 -0.953125 0  -0.953125 -0.953125 0  -0.9375 -0.953125 0  -0.921875 -0.953125 0  -0.90625 -0.953125 0  -0.890625 -0.953125 0  -0.875 -0.953125 0  -0.859375 -0.953125 0  -0.84375 -0.953125 0  -0.828125 -0.953125 0  -0.8125 -0.953125 0  -0.796875 -0.953125 0  -0.78125 -0.953125 0  -0.765625 -0.953125 0  -0.75 -0.953125 0  -0.734375 -0.953125 0  -0.71875 -0.953125 0  -0.703125 -0.953125 0  -0.6875 -0.953125 0  -0.671875 -0.953125 0  -0.65625 -0.953125 0  -0.640625 -0.953125 0  -0.625 -0.953125 0  -0.609375 -0.953125 0  -0.59375 -0.953125 0  -0.578125 -0.953125 0  -0.5625 -0.953125 0  -0.546875 -0.953125 0  -0.53125 -0.953125 0  -0.515625 -0.953125 0  -0.5 -0.953125 0  -0.484375 -0.953125 0  -0.46875 -0.953125 0  -0.453125 -0.953125 0  -0.4375 -0.953125 0  -0.421875 -0.953125 0  -0.40625 -0.953125 0  -0.390625 -0.953125 0  -0.375 -0.953125 0  -0.359375 -0.953125 0  -0.34375 -0.953125 0  -0.328125 -0.953125 0  -0.3125 -0.953125 0  -0.296875 -0.953125 0  -0.28125 -0.953125 0  -0.265625 -0.953125 0  -0.25 -0.953125 0  -0.234375 -0.953125 0  -0.21875 -0.953125 0  -0.203125 -0.953125 0  -0.1875 -0.953125 0  -0.171875 -0.953125 0  -0.15625 -0.953125 0  -0.140625 -0.953125 0  -0.125 -0.953125 0  -0.109375 -0.953125 0  -0.09375 -0.953125 0  -0.078125 -0.953125 0  -0.0625 -0.953125 0  -0.046875 -0.953125 0  -0.03125 -0.953125 0  -0.015625 -0.953125 0  0 -0.953125 0  0.015625 -0.953125 0  0.03125 -0.953125 0  0.046875 -0.953125 0  0.0625 -0.953125 0  0.078125 -0.953125 0  0.09375 -0.953125 0  0.109375 -0.953125 0  0.125 -0.953125 0  0.140625 -0.953125 0  0.15625 -0.953125 0  0.171875 -0.953125 0  0.1875 -0.953125 0  0.203125 -0.953125 0  0.21875 -0.953125 0  0.234375 -0.953125 0  0.25 -0.953125 0  0.265625 -0.953125 0  0.28125 -0.953125 0  0.296875 -0.953125 0  0.3125 -0.953125 0  0.328125 -0.953125 0  0.34375 -0.953125 0  0.359375 -0.953125 0  0.375 -0.953125 0  0.390625 -0.953125 0  0.40625 -0.953125 0  0.421875 -0.953125 0  0.4375 -0.953125 0  0.453125 -0.953125 0  0.46875 -0.953125 0  0.484375 -0.953125 0  0.5 -0.953125 0  0.515625 -0.953125 0  0.53125 -0.953125 0  0.546875 -0.953125 0  0.5625 -0.953125 0  0.578125 -0.953125 0  0.59375 -0.953125 0  0.609375 -0.953125 0  0.625 -0.953125 0  0.640625 -0.953125 0  0.65625 -0.953125 0  0.671875 -0.953125 0  0.6875 -0.953125 0  0.703125 -0.953125 0  0.71875 -0.953125 0  0.734375 -0.953125 0  0.75 -0.953125 0  0.765625 -0.953125 0  0.78125 -0.953125 0  0.796875 -0.953125 0  0.8125 -0.9
[...]
<PointData  Vectors="f_38"> 
<DataArray  type="Float64"  Name="f_38"  NumberOfComponents="3" format="ascii">-3.1575318393844542e-03 3.1579118985919333e-03 0.0000000000000000e+00  -1.4372182289599512e-02 4.3979061688962425e-03 0.0000000000000000e+00  -2.9155831172654332e-02 4.1915988943360396e-03 0.0000000000000000e+00  -4.3794634015671741e-02 4.2204573050998381e-03 0.0000000000000000e+00  -5.8409567094164290e-02 4.2267075278417986e-03 0.0000000000000000e+00  -7.3066050878189986e-02 4.2350090815683177e-03 0.0000000000000000e+00  -8.7753843682534055e-02 4.2456598115726335e-03 0.0000000000000000e+00  -1.0248107586210645e-01 4.2577681903324888e-03 0.0000000000000000e+00  -1.1725302859879777e-01 4.2713701746314760e-03 0.0000000000000000e+00  -1.3207447503261996e-01 4.2862761024277784e-03 0.0000000000000000e+00  -1.4694964179328965e-01 4.3022999749150505e-03 0.0000000000000000e+00  -1.6188205776229972e-01 4.3192366106583517e-03 0.0000000000000000e+00  -1.7687450873462765e-01 4.3368615518347845e-03 0.0000000000000000e+00  -1.9192897240328577e-01 4.3549330418233998e-03 0.0000000000000000e+00  -2.0704655955274745e-01 4.3731928704381119e-03 0.0000000000000000e+00  -2.2222745920210207e-01 4.3913675778048588e-03 0.0000000000000000e+00  -2.3747088788960916e-01 4.4091697264105750e-03 0.0000000000000000e+00  -2.5277504355357494e-01 4.4262992660788125e-03 0.0000000000000000e+00  -2.6813706430135492e-01 4.4424449901824918e-03 0.0000000000000000e+00  -2.8355299237328813e-01 4.4572860765093661e-03 0.0000000000000000e+00  -2.9901774358626210e-01 4.4704937069210545e-03 0.0000000000000000e+00  -3.1452508251749739e-01 4.4817327585103695e-03 0.0000000000000000e+00  -3.3006760366268667e-01 4.4906635579662606e-03 0.0000000000000000e+00  -3.4563671877214325e-01 4.4969436899447027e-03 0.0000000000000000e+00  -3.6122265053533892e-01 4.5002298497046136e-03 0.0000000000000000e+00  -3.7681443274960669e-01 4.5001797296447214e-03 0.0000000000000000e+00  -3.9239991707163813e-01 4.4964539289212412e-03 0.0000000000000000e+00  -4.0796578641368902e-01 4.4887178756472532e-03 0.0000000000000000e+00  -4.2349757500909058e-01 4.4766437509716449e-03 0.0000000000000000e+00  -4.3897969513543617e-01 4.4599124047570368e-03 0.0000000000000000e+00  -4.5439547044963541e-01 4.4382152533623655e-03 0.0000000000000000e+00  -4.6972717585590112e-01 4.4112561503283814e-03 0.0000000000000000e+00  -4.8495608379883892e-01 4.3787532219178105e-03 0.0000000000000000e+00  -5.0006251684583702e-01 4.3404406601375740e-03 0.0000000000000000e+00  -5.1502590639982027e-01 4.2960704665369878e-03 0.0000000000000000e+00  -5.2982485736171958e-01 4.2454141412170575e-03 0.0000000000000000e+00  -5.4443721854306504e-01 4.1882643117015991e-03 0.0000000000000000e+00  -5.5884015861199565e-01 4.1244362968803462e-03 0.0000000000000000e+00  -5.7301024733991746e-01 4.0537696013594670e-03 0.0000000000000000e+00  -5.8692354189959073e-01 3.9761293353792289e-03 0.0000000000000000e+00  -6.0055567794801479e-01 3.8914075549930875e-03 0.0000000000000000e+00  -6.1388196520828964e-01 3.7995245163957715e-03 0.0000000000000000e+00  -6.2687748724134706e-01 3.7004298371812795e-03 0.0000000000000000e+00  -6.3951720507150034e-01 3.5941035559837282e-03 0.0000000000000000e+00  -6.5177606429750023e-01 3.4805570803482250e-03 0.0000000000000000e+00  -6.6362910528257313e-01 3.3598340110063281e-03 0.0000000000000000e+00  -6.7505157597307275e-01 3.2320108290241688e-03 0.0000000000000000e+00  -6.8601904684564896e-01 3.0971974307385211e-03 0.0000000000000000e+00  -6.9650752742765942e-01 2.9555374939333255e-03 0.0000000000000000e+00  -7.0649358377659233e-01 2.8072086577664293e-03 0.0000000000000000e+00  -7.1595445624200926e-01 2.6524224985064633e-03 0.0000000000000000e+00  -7.2486817677123072e-01 2.4914242831526492e-03 0.0000000000000000e+00  -7.3321368495855321e-01 2.3244924838139100e-03 0.0000000000000000e+00  -7.4097094198114033e-01 2.1519380375404312e-03 0.0000000000000000e+00  -7.4812104151469117e-01 1.9741033384934785e-03 0.0000000000000000e+00  -7.5464631668228344e-01 1.7913609528600390e-03 0.0000000000000000e+00  -7.6053044206268972e-01 1.6041120508524462e-03 0.0000000000000000e+00  -7.6575852977311731e-01 1.4127845550848733e-03 0.0000000000000000e+00  -7.7031721864739666e-01 1.2178310098343017e-03 0.0000000000000000e+00  -7.7419475555675754e-01 1.0197261816907008e-03 0.0000000000000000e+00  -7.7738106796654527e-01 8.1896440798494470e-04 0.0000000000000000e+00  -7.7986782688987821e-01 6.1605671540723109e-04 0.0000000000000000e+00  -7.8164849948704729e-01 4.1152773698785900e-04 0.0000000000000000e+00  -7.8271839066671611e-01 2.0591246085343727e-04 0.0000000000000000e+00  -7.8307467316902535e-01 -2.4715136340227655e-07 0.0000000000000000e+00  -7.8271640574900969e-01 -2.0640563498172795e-04 0.0000000000000000e+00  -7.8164453922754573e-01 -4.1201753765307883e-04 0.0000000000000000e+00  -7.7986191033236452e-01 -6.1654093446146378e-04 0.0000000000000000e+00  -7.7737322340916570e-01 -8.1944089754977067e-04 0.0000000000000000e+00  -7.7418502023811542e-01 -1.0201928763524759e-03 0.0000000000000000e+00  -7.7030563833960197e-01 -1.2182859470260712e-03 0.0000000000000000e+00  -7.6574515829111300e-01 -1.4132258932339674e-03 0.0000000000000000e+00  -7.6051534070086668e-01 -1.6045380849633323e-03 0.0000000000000000e+00  -7.5462955359057338e-01 -1.7917701273072472e-03 0.0000000000000000e+00  -7.4810269102721516e-01 -1.9744942568775182e-03 0.0000000000000000e+00  -7.4095108391074482e-01 -2.1523094695171541e-03 0.0000000000000000e+00  -7.3319240387061824e-01 -2.3248433689765655e-03 0.0000000000000000e+00  -7.2484556124960142e-01 -2.4917537320315051e-03 0.0000000000000000e+00  -7.1593059815909255e-01 -2.6527297908838466e-03 0.0000000000000000e+00  -7.0646857757860437e-01 -2.8074932385514645e-03 0.0000000000000000e+00  -6.9648146944467315e-01 -2.9557989668927624e-03 0.0000000000000000e+00  -6.8599203463462866e-01 -3.0974355503531727e-03 0.0000000000000000e+00  -6.7502370770050579e-01 -3.2322254908435512e-03 0.0000000000000000e+00  -6.6360047915174969e-01 -3.3600252408404227e-03 0.0000000000000000e+00  -6.5174677802403091e-01 -3.4807250225934740e-03 0.0000000000000000e+00  -6.3948735540916646e-01 -3.5942484614212475e-03 0.0000000000000000e+00  -6.2684716955907416e-01 -3.7005520505317140e-03 0.0000000000000000e+00  -6.1385127311796772e-01 -3.7996244638970719e-03 0.0000000000000000e+00  -6.0052470298175487e-01 -3.8914857322244652e-03 0.0000000000000000e+00  -5.8689237323444599e-01 -3.9761862955605713e-03 0.0000000000000000e+00  -5.7297897156745270e-01 -4.0538059441611466e-03 0.0000000000000000e+00  -5.5880885954931137e-01 -4.1244526580691727e-03 0.0000000000000000e+00  -5.4440597708228455e-01 -4.1882613535456524e-03 0.0000000000000000e+00  -5.2979375135406515e-01 -4.2453925437525922e-03 0.0000000000000000e+00  -5.1499501057093378e-01 -4.2960309198301220e-03 0.0000000000000000e+00  -5.0003190273885467e-01 -4.3403838574062525e-03 0.0000000000000000e+00  -4.8492581974193405e-01 -4.3786798536008730e-03 0.0000000000000000e+00  -4.6969732695110128e-01 -4.4111668990487836e-03 0.0000000000000000e+00  -4.5436609858023796e-01 -4.4381107897988967e-03 0.0000000000000000e+00  -4.3895085898925174e-01 -4.4597933842473189e-03 0.0000000000000000e+00  -4.2346933011523558e-01 -4.4765108109213626e-03 0.0000000000000000e+00  -4.0793818519092856e-01 -4.4885716335658944e-03 0.0000000000000000e+00  -3.9237300888620041e-01 -4.4962949811605448e-03 0.0000000000000000e+00  -3.7678826398125415e-01 -4.5000086506445771e-03 0.0000000000000000e+00  -3.6119726464977675e-01 -4.5000471917312065e-03 0.0000000000000000e+00  -3.4561215639885873e-01 -4.4967499831697127e-03 0.0000000000000000e+00  -3.3004390267703304e-01 -4.4904593110128167e-03 0.0000000000000000e+00  -3.1450227812584330e-01 -4.4815184591476516e-03 0.0000000000000000e+00  -2.9899586841365006e-01 -4.4702698230602196e-03 0.0000000000000000e+00  -2.8353207655216123e-01 -4.4570530573631723e-03 0.0000000000000000e+00  -2.6811713556238481e-01 -4.4422032675173785e-03 0.0000000000000000e+00  -2.5275612731155478e-01 -4.4260492555183439e-03 0.0000000000000000e+00  -2.3745300734768540e-01 -4.4089118288612233e-03 0.0000000000000000e+00  -2.2221063538345517e-01 -4.3911021808391449e-03 0.0000000000000000e+00  -2.0703081159774037e-01 -4.3729203497134038e-03 0.0000000000000000e+00  -1.9191431686433250e-01 -4.3546537626784751e-03 0.0000000000000000e+00  -1.7686096261254630e-01 -4.3365758675180449e-03 0.0000000000000000e+00  -1.6186962751936534e-01 -4.3189448828375157e-03 0.0000000000000000e+00  -1.4693836478749414e-01 -4.3020025136997963e-03 0.0000000000000000e+00  -1.3206426554846315e-01 -4.2859730858419761e-03 0.0000000000000000e+00  -1.1724424911329467e-01 -4.2710641548229953e-03 0.0000000000000000e+00  -1.0247242249660451e-01 -4.2574464512043055e-03 0.0000000000000000e+00  -8.7750223316410858e-02 -4.2453590523016298e-03 0.0000000000000000e+00  -7.3048725952530327e-02 -4.2348490500111920e-03 0.0000000000000000e+00  -5.8451986475174349e-02 -4.2245051452127697e-03 0.0000000000000000e+00  -4.3607804008865096e-02 -4.2305065239072858e-03 0.0000000000000000e+00  -2.9824970869402157e-02 -4.1692531554085779e-03 0.0000000000000000e+00  -1.2355171227516408e-02 -4.1846007988129569e-03 0.0000000000000000e+00  -6.3150675517127568e-03 -6.3148141354190616e-03 0.0000000000000000e+00  -4.3957087218001274e-03 1.4371416385156145e-02 0.0000000000000000e+00  -1.3467272181121693e-02 1.3472817946559437e-02 0.0000000000000000e+00  -2.9357322792248841e-02 1.3434421561175695e-02 0.0000000000000000e+00  -4.3755148555216505e-02 1.3495653773292163e-02 0.0000000000000000e+00  -5.8397776962012038e-02 1.3506604018675702e-02 0.0000000000000000e+00  -7.3049922728486386e-02 1.3536767387608103e-02 0.0000000000000000e+00  -8.7734196311725771e-02 1.3570500627448363e-02 0.0000000000000000e+00  -1.0245891964622332e-01 1.3609531462752412e-02 0.0000000000000000e+00  -1.1722841329633150e-01 1.3653275948775767e-02 0.0000000000000000e+00  -1.3204773655123059e-01 1.3701166386011730e-02 0.0000000000000000e+00  -1.4692111657176896e-01 1.3752616068712349e-02 0.0000000000000000e+00  -1.6185211600226498e-01 1.3806962089960732e-02 0.0000000000000000e+00  -1.7684355279777811e-01 1.3863484922680512e-02 0.0000000000000000e+00  -1.9189743392664144e-01 1.3921409024140923e-02 0.0000000000000000e+00  -2.0701489780332441e-01 1.3979906425583962e-02 0.0000000000000000e+00  -2.2219615892521472e-01 1.4038100548877558e-02 0.0000000000000000e+00  -2.3744045703430131e-01 1.4095070269543902e-02 0.0000000000000000e+00  -2.5274601083765569e-01 1.4149854299711951e-02 0.0000000000000000e+00  -2.6810997662260416e-01 1.4201455855567466e-02 0.0000000000000000e+00  -2.8352841207825019e-01 1.4248847596251996e-02 0.0000000000000000e+00  -2.9899624560769456e-01 1.4290976814192334e-02 0.0000000000000000e+00  -3.1450725139404734e-01 1.4326770853233596e-02 0.0000000000000000e+00  -3.3005403045575116e-01 1.4355142728009302e-02 0.0000000000000000e+00  -3.4562799789638621e-01 1.4374996915161748e-02 0.0000000000000000e+00  -3.6121937652043201e-01 1.4385235284699427e-02 0.0000000000000000e+00  -3.7681719695125970e-01 1.4384763138293252e-02 0.0000000000000000e+00  -3.9240930435080923e-01 1.4372495320341528e-02 0.0000000000000000e+00  -4.0798237180217489e-01 1.4347362367281543e-02 0.0000000000000000e+00  -4.2352192037987396e-01 1.4308316661539066e-02 0.0000000000000000e+00  -4.3901234589504440e-01 1.4254338557123450e-02 0.0000000000000000e+00  -4.5443695226875114e-01 1.4184442446145230e-02 0.0000000000000000e+00  -4.6977799145334875e-01 1.4097682737489238e-02 0.0000000000000000e+00  -4.8501670979227746e-01 1.3993159721574638e-02 0.0000000000000000e+00  -5.0013340068156487e-01 1.3870025297826433e-02 0.0000000000000000e+00  -5.1510746337217528e-01 1.3727488543974596e-02 0.0000000000000000e+00  -5.2991746773167503e-01 1.3564821108954800e-02 0.0000000000000000e+00  -5.4454122476468758e-01 1.3381362412904699e-02 0.0000000000000000e+00  -5.5895586267486919e-01 1.3176524638930683e-02 0.0000000000000000e+00  -5.7313790823563637e-01 1.2949797501963957e-02 0.0000000000000000e+00  -5.8706337322095004e-01 1.2700752779289190e-02 0.0000000000000000e+00  -6.0070784563064850e-01 1.2429048585834292e-02 0.0000000000000000e+00  -6.1404658542594992e-01 1.2134433374709597e-02 0.0000000000000000e+00  -6.2705462446841054e-01 1.1816749639975423e-02 0.0000000000000000e+00  -6.3970687032861140e-01 1.1475937294026586e-02 0.0000000000000000e+00  -6.5197821359915931e-01 1.1112036687076235e-02 0.0000000000000000e+00  -6.6384363830854221e-01 1.0725191230743820e-02 0.0000000000000000e+00  -6.7527833498826384e-01 1.0315649582151499e-02 0.0000000000000000e+00  -6.8625781589583557e-01 9.8837673399166173e-03 0.0000000000000000e+00  -6.9675803184058138e-01 9.4300081989753624e-03 0.0000000000000000e+00  -7.0675548999923010e-01 8.9549445079589538e-03 0.0000000000000000e+00  -7.1622737204548370e-01 8.4592571712947106e-03 0.0000000000000000e+00  -7.2515165185385566e-01 7.9437348385370341e-03 0.0000000000000000e+00  -7.3350721197574442e-01 7.4092723262038293e-03 0.0000000000000000e+00  -7.4127395802727591e-01 6.8568682226410084e-03 0.0000000000000000e+00  -7.4843293007722589e-01 6.2876216344223109e-03 0.0000000000000000e+00  -7.5496641008203669e-01 5.7027280434751096e-03 0.0000000000000000e+00  -7.6085802438654393e-01 5.1034742573028017e-03 0.0000000000000000e+00  -7.6609284029654190e-01 4.4912324502727509e-03 0.0000000000000000e+00  -7.7065745573451350e-01 3.8674533112404994e-03 0.0000000000000000e+00  -7.7454008101532501e-01 3.2336583315348659e-03 0.0000000000000000e+00  -7.7773061182480319e-01 2.5914312866420139e-03 0.0000000000000000e+00  -7.8022069255185600e-01 1.9424089841946364e-03 0.0000000000000000e+00  -7.8200376921339154e-01 1.2882713692964865e-03 0.0000000000000000e+00  -7.8307513131939854e-01 6.3073109489831700e-04 0.0000000000000000e+00  -7.8343194215123935e-01 -2.8477320600961803e-05 0.0000000000000000e+00  -7.8307325706610797e-01 -6.8760861507833932e-04 0.0000000000000000e+00  -7.8200002959151182e-01 -1.3449180424508474e-03 0.0000000000000000e+00  -7.8021510523107807e-01 -1.9986726253246887e-03 0.0000000000000000e+00  -7.7772320306273290e-01 -2.6471622555871033e-03 0.0000000000000000e+00  -7.7453088536769632e-01 -3.2887105022897704e-03 0.0000000000000000e+00  -7.7064651567938913e-01 -3.9216849943439613e-03 0.0000000000000000e+00  -7.6608020578108127e-01 -4.5445072572538993e-03 0.0000000000000000e+00  -7.6084375230638868e-01 -5.1556618977209676e-03 0.0000000000000000e+00  -7.5495056370452451e-01 -5.7537050469329666e-03 0.0000000000000000e+00  -7.4841557842043904e-01 -6.3372719918548086e-03 0.0000000000000000e+00  -7.4125517520718309e-01 -6.9050839431321499e-03 0.0000000000000000e+00  -7.3348707653380119e-01 -7.4559539075028805e-03 0.0000000000000000e+00  -7.2513024607689447e-01 -7.9887916512566114e-03 0.0000000000000000e+00  -7.1620478128913356e-01 -8.5026077583941762e-03 0.0000000000000000e+00  -7.0673180202502683e-01 -8.9965168025317455e-03 0.0000000000000000e+00  -6.9673333617582589e-01 -9.4697396644834626e-03 0.0000000000000000e+00  -6.8623220322389455e-01 -9.9216050379008682e-03 0.0000000000000000e+00  -6.7525189657563123e-01 -1.0351550173034700e-02 0.0000000000000000e+00  -6.6381646547346829e-01 -1.0759120913732356e-02 0.0000000000000000e+00  -6.5195039722540360e-01 -1.1143971085097343e-02 0.0000000000000000e+00  -6.3967850042645202e-01 -1.1505861289667157e-02 0.0000000000000000e+00  -6.2702578978388646e-01 -1.1844657167980412e-02 0.0000000000000000e+00  -6.1401737309813176e-01 -1.2160327176187364e-02 0.0000000000000000e+00  -6.0067834089602778e-01 -1.2452939928766848e-02 0.0000000000000000e+00  -5.8703365916298111e-01 -1.2722661149423546e-02 0.0000000000000000e+00  -5.7310806557717131e-01 -1.2969750267419800e-02 0.0000000000000000e+00  -5.5892596961060192e-01 -1.3194556691448787e-02 0.0000000000000000e+00  -5.4451135683034102e-01 -1.3397515788105063e-02 0.0000000000000000e+00  -5.2988769770673727e-01 -1.3579144587421111e-02 0.0000000000000000e+00  -5.1507786121260990e-01 -1.3740037234834312e-02 0.0000000000000000e+00  -5.0010403347927945e-01 -1.3880860206084842e-02 0.0000000000000000e+00  -4.8498764175786807e-01 -1.4002347300378751e-02 0.0000000000000000e+00  -4.6974928391916071e-01 -1.4105294426445007e-02 0.0000000000000000e+00  -4.5440866370917754e-01 -1.4190554196897036e-02 0.0000000000000000e+00  -4.3898453196138304e-01 -1.4259030347347879e-02 0.0000000000000000e+00  -4.2349463394715736e-01 -1.4311671998954072e-02 0.0000000000000000e+00  -4.0795566302598113e-01 -1.4349467785119707e-02 0.0000000000000000e+00  -3.9238322073163140e-01 -1.4373439866372335e-02 0.0000000000000000e+00  -3.7679178340511832e-01 -1.4384637859306881e-02 0.0000000000000000e+00  -3.6119467545371392e-01 -1.4384132708814971e-02 0.0000000000000000e+00  -3.4560404928391808e-01 -1.4373010534544792e-02 0.0000000000000000e+00  -3.3003087192064728e-01 -1.4352366484457759e-02 0.0000000000000000e+00  -3.1448491828854458e-01 -1.4323298629422136e-02 0.0000000000000000e+00  -2.9897477109391812e-01 -1.4286901933342148e-02 0.0000000000000000e+00  -2.8350782720816353e-01 -1.4244262332824392e-02 0.0000000000000000e+00  -2.6809031041706816e-01 -1.4196450959712607e-02 0.0000000000000000e+00  -2.5272729036171065e-01 -1.4144518537823164e-02 0.0000000000000000e+00  -2.3742270747708899e-01 -1.4089489983173614e-02 0.0000000000000000e+00  -2.2217940365098324e-01 -1.4032359234219600e-02 0.0000000000000000e+00  -2.0699915849696371e-01 -1.3974084335027013e-02 0.0000000000000000e+00  -1.9188273037089087e-01 -1.3915582791052764e-02 0.0000000000000000e+00  -1.7682990400861229e-01 -1.3857727215569876e-02 0.0000000000000000e+00  -1.6183953629855705e-01 -1.3801341270088063e-02 0.0000000000000000e+00  -1.4690963041668803e-01 -1.3747195914629022e-02 0.0000000000000000e+00  -1.3203732346827013e-01 -1.3696006195299379e-02 0.0000000000000000e+00  -1.1721921659768339e-01 -1.3648426545326321e-02 0.0000000000000000e+00  -1.0245044039234918e-01 -1.3605054303055959e-02 0.0000000000000000e+00  -8.7728440997693946e-02 -1.3566424684134337e-02 0.0000000000000000e+00  -7.3039346007758146e-02 -1.3532832724895557e-02 0.0000000000000000e+00  -5.8408364576442384e-02 -1.3505866197266420e-02 0.0000000000000000e+00  -4.3713259990282874e-02 -1.3481271874414020e-02 0.0000000000000000e+00  -2.9398747571561430e-02 -1.3458255898672604e-02 0.0000000000000000e+00  -1.3604477389079064e-02 -1.3609146740572462e-02 0.0000000000000000e+00  -4.1821553449548823e-03 -1.2353232606245722e-02 0.0000000000000000e+00  -4.1833279717291907e-03 2.9139772056738067e-02 0.0000000000000000e+00  -1.3408755227656331e-02 2.9354892613323580e-02 0.0000000000000000e+00  -2.9474587299893110e-02 2.9514567821139762e-02 0.0000000000000000e+00  -4.3669384649400039e-02 2.9528904521081731e-02 0.0000000000000000e+00  -5.8369640170507331e-02 2.9574133535425141e-02 0.0000000000000000e+00  -7.2997348263731707e-02 2.9638332375019383e-02 0.0000000000000000e+00  -8.7675118847883038e-02 2.9711642734958427e-02 0.0000000000000000e+00  -1.0239159571413073e-01 2.9797198922619398e-02 0.0000000000000000e+00  -1.1715379894990623e-01 2.9893010153195548e-02 0.0000000000000000e+00  -1.3196678797550723e-01 2.9998068828981182e-02 0.0000000000000000e+00  -1.4683484126656698e-01 3.0111053933732045e-02 0.0000000000000000e+00  -1.6176163723946599e-01 3.0230521265335236e-02 0.0000000000000000e+00  -1.7675008462634884e-01 3.0354898686778799e-02 0.0000000000000000e+00  -1.9180227902845245e-01 3.0482490109688516e-02 0.0000000000000000e+00  -2.0691944143426130e-01 3.0611484154189100e-02 0.0000000000000000e+00  -2.2210186249642294e-01 3.0739962163232951e-02 0.0000000000000000e+00  -2.3734885126648284e-01 3.0865907133172468e-02 0.0000000000000000e+00  -2.5265868841026490e-01 3.0987213287241480e-02 0.0000000000000000e+00  -2.6802858436937682e-01 3.1101696281841208e-02 0.0000000000000000e+00  -2.8345464275418503e-01 3.1207104014250156e-02 0.0000000000000000e+00  -2.9893182926285294e-01 